 TITLE = "Aqueous Rate (mol/L/s) " 
VARIABLES = "X"          "Y"              "Z"            "Sulfate_reduct" "Sulfate34_redu" "AOM"            "AOM34"          "Methanogenesis"
 ZONE F=POINT,I=           1 , J=           1
   5.00000000E-01   5.00000000E-01   5.00000000E-01   4.67067716E-07   1.94757320E-08   5.84502399E-10   2.27495248E-11   3.27354387E-11
