 TITLE = "Aqueous Rate (mol/L/s) " 
VARIABLES = "X"          "Y"              "Z"            "Sulfate_reduct" "Sulfate34_redu" "AOM"            "AOM34"          "Methanogenesis"
 ZONE F=POINT,I=           1 , J=           1
   5.00000000E-01   5.00000000E-01   5.00000000E-01   4.66203559E-07   1.94576909E-08   4.64912711E-10   1.86226017E-11   3.27056848E-11
