 TITLE = "Aqueous Rate (mol/L/s) " 
VARIABLES = "X"          "Y"              "Z"            "Sulfate_reduct" "Sulfate34_redu" "AOM"            "AOM34"          "Methanogenesis"
 ZONE F=POINT,I=           1 , J=           1
   5.00000000E-01   5.00000000E-01   5.00000000E-01   4.66231653E-07   1.94618529E-08   4.57028304E-10   1.83765899E-11   3.27051958E-11
