 TITLE = "Aqueous Rate (mol/L/s) " 
VARIABLES = "X"          "Y"              "Z"            "Sulfate_reduct" "Sulfate34_redu" "AOM"            "AOM34"          "Methanogenesis"
 ZONE F=POINT,I=           1 , J=           1
   5.00000000E-01   5.00000000E-01   5.00000000E-01   4.73016475E-07   1.98420485E-08   1.60506279E-11   7.22265276E-13   3.29181994E-11
