 TITLE = "Mineral Area" 
VARIABLES = "X"          "Y"              "Z"            "FeS(am)"        "FeS34(am)"      "Siderite"       "SiO2(am)"       "Quartz"         "Calcite"        "Calcite44"      "Sepiolite"      "K-Feldspar"     "Kaolinite"      "C5H7O2NSO4(s)" 
 ZONE I=           1 , J=           1 , K=           1  F=POINT
   5.00000000E-01   5.00000000E-01   5.00000000E-01   1.95360605E-01   1.36742781E-01   0.00000000E+00   0.00000000E+00   1.00000000E+00   1.00001547E+00   1.00001579E+00   1.24776806E+06   1.40610271E+06   7.13365236E+06   1.00000000E+00
