 TITLE = "Mineral Area" 
VARIABLES = "X"          "Y"              "Z"            "FeS(am)"        "FeS34(am)"      "Siderite"       "SiO2(am)"       "Quartz"         "Calcite"        "Calcite44"      "Sepiolite"      "K-Feldspar"     "Kaolinite"      "C5H7O2NSO4(s)" 
 ZONE I=           1 , J=           1 , K=           1  F=POINT
   5.00000000E-01   5.00000000E-01   5.00000000E-01   1.90384727E-01   4.62659217E-02   0.00000000E+00   0.00000000E+00   1.00000000E+00   1.00002310E+00   1.00002358E+00   1.24776736E+06   1.40610318E+06   7.13365214E+06   1.00000000E+00
