 TITLE = "Mineral Area" 
VARIABLES = "X"          "Y"              "Z"            "FeS(am)"        "FeS34(am)"      "Siderite"       "SiO2(am)"       "Quartz"         "Calcite"        "Calcite44"      "Sepiolite"      "K-Feldspar"     "Kaolinite"      "C5H7O2NSO4(s)" 
 ZONE I=           1 , J=           1 , K=           1  F=POINT
   5.00000000E-01   5.00000000E-01   5.00000000E-01   1.83034072E-01   0.00000000E+00   0.00000000E+00   0.00000000E+00   1.00000000E+00   1.00003074E+00   1.00003139E+00   1.24776624E+06   1.40610393E+06   7.13365180E+06   1.00000000E+00
