 TITLE = "Mineral Area" 
VARIABLES = "X"          "Y"              "Z"            "FeS(am)"        "FeS34(am)"      "Siderite"       "SiO2(am)"       "Quartz"         "Calcite"        "Calcite44"      "Sepiolite"      "K-Feldspar"     "Kaolinite"      "C5H7O2NSO4(s)" 
 ZONE I=           1 , J=           1 , K=           1  F=POINT
   5.00000000E-01   5.00000000E-01   5.00000000E-01   0.00000000E+00   0.00000000E+00   0.00000000E+00   4.59051561E-04   1.00000000E+00   1.00019708E+00   1.00020719E+00   1.24496683E+06   1.40794284E+06   7.13279898E+06   1.00000000E+00
