 TITLE = "Mineral Area" 
VARIABLES = "X"          "Y"              "Z"            "FeS(am)"        "FeS34(am)"      "Siderite"       "SiO2(am)"       "Quartz"         "Calcite"        "Calcite44"      "Sepiolite"      "K-Feldspar"     "Kaolinite"      "C5H7O2NSO4(s)" 
 ZONE I=           1 , J=           1 , K=           1  F=POINT
   5.00000000E-01   5.00000000E-01   5.00000000E-01   1.96459685E-01   1.52675117E-01   0.00000000E+00   0.00000000E+00   1.00000000E+00   1.00001323E+00   1.00001351E+00   1.24776819E+06   1.40610262E+06   7.13365241E+06   1.00000000E+00
