 TITLE = "Mineral Area" 
VARIABLES = "X"          "Y"              "Z"            "FeS(am)"        "FeS34(am)"      "Siderite"       "SiO2(am)"       "Quartz"         "Calcite"        "Calcite44"      "Sepiolite"      "K-Feldspar"     "Kaolinite"      "C5H7O2NSO4(s)" 
 ZONE I=           1 , J=           1 , K=           1  F=POINT
   5.00000000E-01   5.00000000E-01   5.00000000E-01   0.00000000E+00   0.00000000E+00   0.00000000E+00   6.57487415E-03   1.00000000E+00   1.00085356E+00   1.00092997E+00   1.22002559E+06   1.42464939E+06   7.12505107E+06   1.00000000E+00
