 TITLE = "Mineral Area" 
VARIABLES = "X"          "Y"              "Z"            "FeS(am)"        "FeS34(am)"      "Siderite"       "SiO2(am)"       "Quartz"         "Calcite"        "Calcite44"      "Sepiolite"      "K-Feldspar"     "Kaolinite"      "C5H7O2NSO4(s)" 
 ZONE I=           1 , J=           1 , K=           1  F=POINT
   5.00000000E-01   5.00000000E-01   5.00000000E-01   1.87673157E-01   0.00000000E+00   0.00000000E+00   0.00000000E+00   1.00000000E+00   1.00002637E+00   1.00002692E+00   1.24776694E+06   1.40610346E+06   7.13365201E+06   1.00000000E+00
