 TITLE = "Total Concentrations" 
VARIABLES = "X"          "Y"              "Z"            "H+"             "Al+++"          "CO2(aq)"        "NH3(aq)"        "Mg++"           "Ca++"           "Ca44++"         "Fe++"           "Fe+++"          "Cl-"            "K+"             "H2S(aq)"        "H2S34(aq)"      "SO4--"          "S34O4--"        "Na+"            "SiO2(aq)"       "O2(aq)"         "B(OH)3(aq)"     "HPO4--"         "NO3-"           "Methane(aq)"    "Formaldehyde"   "C5H7O2NSO4"     "HNO3(aq)"       "Al(OH)2+"       "Al(SO4)2-"      "Al(S34O4)2-"    "AlO2-"          "AlOH++"         "HCO3-"          "CO3--"          "CaCl+"          "Ca44Cl+"        "CaCl2(aq)"      "Ca44Cl2(aq)"    "CaOH+"          "Ca44OH+"        "CaSO4(aq)"      "CaS34O4(aq)"    "Ca44SO4(aq)"    "Ca44S34O4(aq)"  "Fe(OH)2(aq)"    "Fe(OH)3-"       "Fe(OH)4--"      "FeCl+"          "FeCl2(aq)"      "FeCl4--"        "FeOH+"          "FeSO4(aq)"      "FeS34O4(aq)"    "OH-"            "HS-"            "HS34-"          "H2PO4-"         "H3PO4(aq)"      "HAlO2(aq)"      "HSO4-"          "HS34O4-"        "HSiO3-"         "KCl(aq)"        "KHSO4(aq)"      "KHS34O4(aq)"    "KOH(aq)"        "KSO4-"          "KS34O4-"        "NaAlO2(aq)"     "NaCl(aq)"       "NaHSiO3(aq)"    "NaOH(aq)"       "NaSO4-"         "NaS34O4-"       "NH4+"           "H2(aq)"         "CaHPO4(aq)"     "Ca44HPO4(aq)"   "CaPO4-"         "Ca44PO4-"       "FeCO3(aq)"      "FeH2PO4+"       "FeHPO4(aq)"     "FePO4-"         "KHPO4-"         "PO4---"         "S--"            "S34--"          "BO2-"           "MgB(OH)4+"     
 ZONE I=           1 , J=           1 , K=           1  F=POINT
   5.00000000E-01   5.00000000E-01   5.00000000E-01  -6.93352065E+00  -1.29724285E+01  -3.41302820E+00  -1.23257361E+01  -1.29195270E+00   3.54719175E-02  -1.62872909E+00  -7.12366908E+00  -1.29999998E+01   4.56109426E-01  -1.92896875E+00  -4.30974074E+00  -4.93255794E+00  -1.98655616E+00  -3.33247384E+00  -3.62894117E-01  -3.99404428E+00  -3.74472744E+00  -3.41138252E+00  -6.65661399E+00  -4.40893533E+00  -8.08576179E+00  -9.20830614E-01  -1.54058222E+01  -1.33851111E+01  -1.17816127E+01  -1.50503017E+01  -1.77421371E+01  -1.11190625E+01  -1.18143998E+01  -2.44496195E+00  -5.29050989E+00  -9.20088140E-01  -2.58428915E+00  -1.01833316E+00  -2.68253417E+00  -6.42990922E+00  -8.09411023E+00  -1.89307382E+00  -3.23899150E+00  -3.55727482E+00  -4.90319251E+00  -1.49422424E+01  -1.78979761E+01  -2.51470093E+01  -7.55378697E+00  -1.01185127E+01  -3.72876401E+00  -1.02386234E+01  -8.92006825E+00  -1.02659859E+01  -7.53793625E+00  -4.08509300E+00  -4.70791021E+00  -7.13818036E+00  -1.24904170E+01  -1.17114449E+01  -7.94761228E+00  -9.29352997E+00  -6.74892155E+00  -3.88250781E+00  -1.18352045E+01  -1.31811222E+01  -1.00530058E+01  -4.05671042E+00  -5.40262810E+00  -1.29528970E+01  -1.43286918E+00  -5.94491971E+00  -9.32785310E+00  -2.47839749E+00  -3.82431517E+00  -8.82987679E+00  -4.77424114E+01  -5.89089782E+00  -7.55509882E+00  -7.04657759E+00  -8.71077860E+00  -9.42574479E+00  -1.94859644E+01  -1.21895733E+01  -1.27353336E+01  -8.81584286E+00  -1.08468171E+01  -9.98491413E+00  -1.06077313E+01  -5.39626269E+00  -5.08746312E+00
