 TITLE = "Total Concentrations" 
VARIABLES = "X"          "Y"              "Z"            "H+"             "Al+++"          "CO2(aq)"        "NH3(aq)"        "Mg++"           "Ca++"           "Ca44++"         "Fe++"           "Fe+++"          "Cl-"            "K+"             "H2S(aq)"        "H2S34(aq)"      "SO4--"          "S34O4--"        "Na+"            "SiO2(aq)"       "O2(aq)"         "B(OH)3(aq)"     "HPO4--"         "NO3-"           "Methane(aq)"    "Formaldehyde"   "C5H7O2NSO4"     "HNO3(aq)"       "Al(OH)2+"       "Al(SO4)2-"      "Al(S34O4)2-"    "AlO2-"          "AlOH++"         "HCO3-"          "CO3--"          "CaCl+"          "Ca44Cl+"        "CaCl2(aq)"      "Ca44Cl2(aq)"    "CaOH+"          "Ca44OH+"        "CaSO4(aq)"      "CaS34O4(aq)"    "Ca44SO4(aq)"    "Ca44S34O4(aq)"  "Fe(OH)2(aq)"    "Fe(OH)3-"       "Fe(OH)4--"      "FeCl+"          "FeCl2(aq)"      "FeCl4--"        "FeOH+"          "FeSO4(aq)"      "FeS34O4(aq)"    "OH-"            "HS-"            "HS34-"          "H2PO4-"         "H3PO4(aq)"      "HAlO2(aq)"      "HSO4-"          "HS34O4-"        "HSiO3-"         "KCl(aq)"        "KHSO4(aq)"      "KHS34O4(aq)"    "KOH(aq)"        "KSO4-"          "KS34O4-"        "NaAlO2(aq)"     "NaCl(aq)"       "NaHSiO3(aq)"    "NaOH(aq)"       "NaSO4-"         "NaS34O4-"       "NH4+"           "H2(aq)"         "CaHPO4(aq)"     "Ca44HPO4(aq)"   "CaPO4-"         "Ca44PO4-"       "FeCO3(aq)"      "FeH2PO4+"       "FeHPO4(aq)"     "FePO4-"         "KHPO4-"         "PO4---"         "S--"            "S34--"          "BO2-"           "MgB(OH)4+"     
 ZONE I=           1 , J=           1 , K=           1  F=POINT
   5.00000000E-01   5.00000000E-01   5.00000000E-01  -7.05383406E+00  -1.34448377E+01  -3.50680869E+00  -1.22055048E+01  -1.29197646E+00   3.55175241E-02  -1.62868352E+00  -7.25297227E+00  -1.29999998E+01   4.56130249E-01  -1.92896477E+00  -4.59045743E+00  -5.01211480E+00  -1.98655505E+00  -3.33247351E+00  -3.62894900E-01  -3.99669260E+00  -3.74472744E+00  -3.41558739E+00  -6.65960905E+00  -4.40893533E+00  -8.05185314E+00  -9.20825780E-01  -1.54058551E+01  -1.35054373E+01  -1.20134235E+01  -1.55227124E+01  -1.82145494E+01  -1.11102703E+01  -1.21665047E+01  -2.41841773E+00  -5.14365686E+00  -9.20017124E-01  -2.58421817E+00  -1.01825639E+00  -2.68245744E+00  -6.30956568E+00  -7.97376673E+00  -1.89305348E+00  -3.23897194E+00  -3.55725453E+00  -4.90317299E+00  -1.48309694E+01  -1.76663783E+01  -2.47951008E+01  -7.68306476E+00  -1.02477847E+01  -3.85794560E+00  -1.02476287E+01  -9.04939671E+00  -1.03953152E+01  -7.41764377E+00  -4.24548434E+00  -4.66714170E+00  -7.26148618E+00  -1.27340475E+01  -1.18229774E+01  -8.06792194E+00  -9.41384040E+00  -6.63124515E+00  -3.88249959E+00  -1.19555252E+01  -1.33014437E+01  -9.93272506E+00  -4.05670644E+00  -5.40262490E+00  -1.29441191E+01  -1.43286421E+00  -5.82725763E+00  -9.20757560E+00  -2.47839676E+00  -3.82431522E+00  -8.82992102E+00  -4.77424607E+01  -5.89387364E+00  -7.55807469E+00  -6.92922870E+00  -8.59342975E+00  -9.40821936E+00  -1.97385673E+01  -1.23218980E+01  -1.27473335E+01  -8.81883504E+00  -1.07294952E+01  -1.00249988E+01  -1.04466562E+01  -5.28014285E+00  -4.97135842E+00
