 TITLE = "Total Concentrations" 
VARIABLES = "X"          "Y"              "Z"            "H+"             "Al+++"          "CO2(aq)"        "NH3(aq)"        "Mg++"           "Ca++"           "Ca44++"         "Fe++"           "Fe+++"          "Cl-"            "K+"             "H2S(aq)"        "H2S34(aq)"      "SO4--"          "S34O4--"        "Na+"            "SiO2(aq)"       "O2(aq)"         "B(OH)3(aq)"     "HPO4--"         "NO3-"           "Methane(aq)"    "Formaldehyde"   "C5H7O2NSO4"     "HNO3(aq)"       "Al(OH)2+"       "Al(SO4)2-"      "Al(S34O4)2-"    "AlO2-"          "AlOH++"         "HCO3-"          "CO3--"          "CaCl+"          "Ca44Cl+"        "CaCl2(aq)"      "Ca44Cl2(aq)"    "CaOH+"          "Ca44OH+"        "CaSO4(aq)"      "CaS34O4(aq)"    "Ca44SO4(aq)"    "Ca44S34O4(aq)"  "Fe(OH)2(aq)"    "Fe(OH)3-"       "Fe(OH)4--"      "FeCl+"          "FeCl2(aq)"      "FeCl4--"        "FeOH+"          "FeSO4(aq)"      "FeS34O4(aq)"    "OH-"            "HS-"            "HS34-"          "H2PO4-"         "H3PO4(aq)"      "HAlO2(aq)"      "HSO4-"          "HS34O4-"        "HSiO3-"         "KCl(aq)"        "KHSO4(aq)"      "KHS34O4(aq)"    "KOH(aq)"        "KSO4-"          "KS34O4-"        "NaAlO2(aq)"     "NaCl(aq)"       "NaHSiO3(aq)"    "NaOH(aq)"       "NaSO4-"         "NaS34O4-"       "NH4+"           "H2(aq)"         "CaHPO4(aq)"     "Ca44HPO4(aq)"   "CaPO4-"         "Ca44PO4-"       "FeCO3(aq)"      "FeH2PO4+"       "FeHPO4(aq)"     "FePO4-"         "KHPO4-"         "PO4---"         "S--"            "S34--"          "BO2-"           "MgB(OH)4+"     
 ZONE I=           1 , J=           1 , K=           1  F=POINT
   5.00000000E-01   5.00000000E-01   5.00000000E-01  -7.23302246E+00  -1.41478596E+01  -3.65810484E+00  -1.20264533E+01  -1.29202190E+00   3.55679077E-02  -1.62863319E+00  -7.41444469E+00  -1.29999998E+01   4.56148164E-01  -1.92896179E+00  -4.98398525E+00  -5.23763574E+00  -1.98655718E+00  -3.33247621E+00  -3.62895609E-01  -4.00104225E+00  -3.74472744E+00  -3.42433064E+00  -6.67045350E+00  -4.40893533E+00  -8.02658650E+00  -9.20822264E-01  -1.54058929E+01  -1.36846404E+01  -1.23581012E+01  -1.62257429E+01  -1.89175810E+01  -1.10965986E+01  -1.26903488E+01  -2.39051246E+00  -4.93656850E+00  -9.19943548E-01  -2.58414465E+00  -1.01818223E+00  -2.68238333E+00  -6.13034471E+00  -7.79454581E+00  -1.89303558E+00  -3.23895461E+00  -3.55723668E+00  -4.90315572E+00  -1.46341233E+01  -1.72903307E+01  -2.42398678E+01  -7.84451399E+00  -1.04092334E+01  -4.01930227E+00  -1.02299305E+01  -9.21090162E+00  -1.05568207E+01  -7.23847946E+00  -4.45980999E+00  -4.71346048E+00  -7.45151600E+00  -1.31032787E+01  -1.19885071E+01  -8.24710943E+00  -9.59302846E+00  -6.45639338E+00  -3.88249777E+00  -1.21347270E+01  -1.34806461E+01  -9.75357585E+00  -4.05670686E+00  -5.40262590E+00  -1.29304638E+01  -1.43286433E+00  -5.65242216E+00  -9.02842832E+00  -2.47839912E+00  -3.82431816E+00  -8.83001435E+00  -4.77425175E+01  -5.90469807E+00  -7.56889917E+00  -6.76085171E+00  -8.42505282E+00  -9.36263151E+00  -2.00900625E+01  -1.24942452E+01  -1.27404793E+01  -8.82967780E+00  -1.05611472E+01  -1.00601439E+01  -1.03137944E+01  -5.10968468E+00  -4.80093579E+00
