 TITLE = "Total Concentrations" 
VARIABLES = "X"          "Y"              "Z"            "H+"             "Al+++"          "CO2(aq)"        "NH3(aq)"        "Mg++"           "Ca++"           "Ca44++"         "Fe++"           "Fe+++"          "Cl-"            "K+"             "H2S(aq)"        "H2S34(aq)"      "SO4--"          "S34O4--"        "Na+"            "SiO2(aq)"       "O2(aq)"         "B(OH)3(aq)"     "HPO4--"         "NO3-"           "Methane(aq)"    "Formaldehyde"   "C5H7O2NSO4"     "HNO3(aq)"       "Al(OH)2+"       "Al(SO4)2-"      "Al(S34O4)2-"    "AlO2-"          "AlOH++"         "HCO3-"          "CO3--"          "CaCl+"          "Ca44Cl+"        "CaCl2(aq)"      "Ca44Cl2(aq)"    "CaOH+"          "Ca44OH+"        "CaSO4(aq)"      "CaS34O4(aq)"    "Ca44SO4(aq)"    "Ca44S34O4(aq)"  "Fe(OH)2(aq)"    "Fe(OH)3-"       "Fe(OH)4--"      "FeCl+"          "FeCl2(aq)"      "FeCl4--"        "FeOH+"          "FeSO4(aq)"      "FeS34O4(aq)"    "OH-"            "HS-"            "HS34-"          "H2PO4-"         "H3PO4(aq)"      "HAlO2(aq)"      "HSO4-"          "HS34O4-"        "HSiO3-"         "KCl(aq)"        "KHSO4(aq)"      "KHS34O4(aq)"    "KOH(aq)"        "KSO4-"          "KS34O4-"        "NaAlO2(aq)"     "NaCl(aq)"       "NaHSiO3(aq)"    "NaOH(aq)"       "NaSO4-"         "NaS34O4-"       "NH4+"           "H2(aq)"         "CaHPO4(aq)"     "Ca44HPO4(aq)"   "CaPO4-"         "Ca44PO4-"       "FeCO3(aq)"      "FeH2PO4+"       "FeHPO4(aq)"     "FePO4-"         "KHPO4-"         "PO4---"         "S--"            "S34--"          "BO2-"           "MgB(OH)4+"     
 ZONE I=           1 , J=           1 , K=           1  F=POINT
   5.00000000E-01   5.00000000E-01   5.00000000E-01  -7.77340038E+00  -1.62299840E+01  -4.15493179E+00  -1.14868416E+01  -1.29229577E+00   3.56646897E-02  -1.62853653E+00  -7.83884408E+00  -1.29999998E+01   4.56170880E-01  -1.92895896E+00  -6.29214662E+00  -6.53648550E+00  -1.98656849E+00  -3.33248803E+00  -3.62899297E-01  -4.02735013E+00  -3.74472744E+00  -3.48335565E+00  -6.76487209E+00  -4.40893533E+00  -8.00356403E+00  -9.20819183E-01  -1.54059667E+01  -1.42250471E+01  -1.33595335E+01  -1.83078984E+01  -2.09997374E+01  -1.10173285E+01  -1.42321159E+01  -2.34693614E+00  -4.35262460E+00  -9.19813760E-01  -2.58401498E+00  -1.01806350E+00  -2.68226472E+00  -5.58990471E+00  -7.25410593E+00  -1.89300925E+00  -3.23892879E+00  -3.55721047E+00  -4.90313001E+00  -1.39778803E+01  -1.60936845E+01  -2.25028496E+01  -8.26888037E+00  -1.08336108E+01  -4.44352487E+00  -1.01139867E+01  -9.63537146E+00  -1.09812910E+01  -6.69814849E+00  -5.22756664E+00  -5.47190552E+00  -8.08630657E+00  -1.42784726E+01  -1.24496402E+01  -8.78749272E+00  -1.01334123E+01  -5.94229798E+00  -3.88250940E+00  -1.26751413E+01  -1.40210608E+01  -9.21327727E+00  -4.05671782E+00  -5.40263736E+00  -1.28512277E+01  -1.43287908E+00  -5.13836082E+00  -8.48813286E+00  -2.47841320E+00  -3.82433274E+00  -8.83069571E+00  -4.77426281E+01  -5.99907902E+00  -7.66328023E+00  -6.31482938E+00  -7.97903060E+00  -9.20314174E+00  -2.11492388E+01  -1.30131223E+01  -1.27189531E+01  -8.92409603E+00  -1.01151799E+01  -1.02875379E+01  -1.05318767E+01  -4.62830641E+00  -4.31981209E+00
