 TITLE = "Total Concentrations" 
VARIABLES = "X"          "Y"              "Z"            "H+"             "Al+++"          "CO2(aq)"        "NH3(aq)"        "Mg++"           "Ca++"           "Ca44++"         "Fe++"           "Fe+++"          "Cl-"            "K+"             "H2S(aq)"        "H2S34(aq)"      "SO4--"          "S34O4--"        "Na+"            "SiO2(aq)"       "O2(aq)"         "B(OH)3(aq)"     "HPO4--"         "NO3-"           "Methane(aq)"    "Formaldehyde"   "C5H7O2NSO4"     "HNO3(aq)"       "Al(OH)2+"       "Al(SO4)2-"      "Al(S34O4)2-"    "AlO2-"          "AlOH++"         "HCO3-"          "CO3--"          "CaCl+"          "Ca44Cl+"        "CaCl2(aq)"      "Ca44Cl2(aq)"    "CaOH+"          "Ca44OH+"        "CaSO4(aq)"      "CaS34O4(aq)"    "Ca44SO4(aq)"    "Ca44S34O4(aq)"  "Fe(OH)2(aq)"    "Fe(OH)3-"       "Fe(OH)4--"      "FeCl+"          "FeCl2(aq)"      "FeCl4--"        "FeOH+"          "FeSO4(aq)"      "FeS34O4(aq)"    "OH-"            "HS-"            "HS34-"          "H2PO4-"         "H3PO4(aq)"      "HAlO2(aq)"      "HSO4-"          "HS34O4-"        "HSiO3-"         "KCl(aq)"        "KHSO4(aq)"      "KHS34O4(aq)"    "KOH(aq)"        "KSO4-"          "KS34O4-"        "NaAlO2(aq)"     "NaCl(aq)"       "NaHSiO3(aq)"    "NaOH(aq)"       "NaSO4-"         "NaS34O4-"       "NH4+"           "H2(aq)"         "CaHPO4(aq)"     "Ca44HPO4(aq)"   "CaPO4-"         "Ca44PO4-"       "FeCO3(aq)"      "FeH2PO4+"       "FeHPO4(aq)"     "FePO4-"         "KHPO4-"         "PO4---"         "S--"            "S34--"          "BO2-"           "MgB(OH)4+"     
 ZONE I=           1 , J=           1 , K=           1  F=POINT
   5.00000000E-01   5.00000000E-01   5.00000000E-01  -7.01267924E+00  -1.32831727E+01  -3.47381334E+00  -1.22466311E+01  -1.29196788E+00   3.55033420E-02  -1.62869769E+00  -7.21193622E+00  -1.29999998E+01   4.56124387E-01  -1.92896586E+00  -4.49484377E+00  -4.98408789E+00  -1.98655507E+00  -3.33247332E+00  -3.62894693E-01  -3.99579267E+00  -3.74472744E+00  -3.41402104E+00  -6.65821457E+00  -4.40893533E+00  -8.06118137E+00  -9.20827099E-01  -1.54058447E+01  -1.34642784E+01  -1.19340591E+01  -1.53610463E+01  -1.80528828E+01  -1.11132080E+01  -1.20459916E+01  -2.42658078E+00  -5.19297327E+00  -9.20038621E-01  -2.58423965E+00  -1.01827898E+00  -2.68248001E+00  -6.35072978E+00  -8.01493081E+00  -1.89305933E+00  -3.23897757E+00  -3.55726036E+00  -4.90317861E+00  -1.48722270E+01  -1.77487943E+01  -2.49186707E+01  -7.64203602E+00  -1.02067571E+01  -3.81694513E+00  -1.02477426E+01  -9.00835232E+00  -1.03542706E+01  -7.45879196E+00  -4.19102928E+00  -4.68027339E+00  -7.21893773E+00  -1.26503406E+01  -1.17847567E+01  -8.02676798E+00  -9.37268623E+00  -6.67150362E+00  -3.88250129E+00  -1.19143676E+01  -1.32602858E+01  -9.97386937E+00  -4.05670720E+00  -5.40262545E+00  -1.29470524E+01  -1.43286509E+00  -5.86751161E+00  -9.24871908E+00  -2.47839670E+00  -3.82431494E+00  -8.82990449E+00  -4.77424451E+01  -5.89248500E+00  -7.55668603E+00  -6.96899846E+00  -8.63319949E+00  -9.41649199E+00  -1.96549847E+01  -1.22794591E+01  -1.27460530E+01  -8.81744132E+00  -1.07692566E+01  -1.00116965E+01  -1.05009406E+01  -5.31973490E+00  -5.01094462E+00
