 TITLE = "Total Concentrations" 
VARIABLES = "X"          "Y"              "Z"            "H+"             "Al+++"          "CO2(aq)"        "NH3(aq)"        "Mg++"           "Ca++"           "Ca44++"         "Fe++"           "Fe+++"          "Cl-"            "K+"             "H2S(aq)"        "H2S34(aq)"      "SO4--"          "S34O4--"        "Na+"            "SiO2(aq)"       "O2(aq)"         "B(OH)3(aq)"     "HPO4--"         "NO3-"           "Methane(aq)"    "Formaldehyde"   "C5H7O2NSO4"     "HNO3(aq)"       "Al(OH)2+"       "Al(SO4)2-"      "Al(S34O4)2-"    "AlO2-"          "AlOH++"         "HCO3-"          "CO3--"          "CaCl+"          "Ca44Cl+"        "CaCl2(aq)"      "Ca44Cl2(aq)"    "CaOH+"          "Ca44OH+"        "CaSO4(aq)"      "CaS34O4(aq)"    "Ca44SO4(aq)"    "Ca44S34O4(aq)"  "Fe(OH)2(aq)"    "Fe(OH)3-"       "Fe(OH)4--"      "FeCl+"          "FeCl2(aq)"      "FeCl4--"        "FeOH+"          "FeSO4(aq)"      "FeS34O4(aq)"    "OH-"            "HS-"            "HS34-"          "H2PO4-"         "H3PO4(aq)"      "HAlO2(aq)"      "HSO4-"          "HS34O4-"        "HSiO3-"         "KCl(aq)"        "KHSO4(aq)"      "KHS34O4(aq)"    "KOH(aq)"        "KSO4-"          "KS34O4-"        "NaAlO2(aq)"     "NaCl(aq)"       "NaHSiO3(aq)"    "NaOH(aq)"       "NaSO4-"         "NaS34O4-"       "NH4+"           "H2(aq)"         "CaHPO4(aq)"     "Ca44HPO4(aq)"   "CaPO4-"         "Ca44PO4-"       "FeCO3(aq)"      "FeH2PO4+"       "FeHPO4(aq)"     "FePO4-"         "KHPO4-"         "PO4---"         "S--"            "S34--"          "BO2-"           "MgB(OH)4+"     
 ZONE I=           1 , J=           1 , K=           1  F=POINT
   5.00000000E-01   5.00000000E-01   5.00000000E-01  -7.30692149E+00  -1.44367619E+01  -3.72292142E+00  -1.19526211E+01  -1.29204557E+00   3.55854144E-02  -1.62861571E+00  -7.49117643E+00  -1.29999998E+01   4.56154666E-01  -1.92896104E+00  -5.15166856E+00  -5.40406479E+00  -1.98655848E+00  -3.33247766E+00  -3.62895990E-01  -4.00322400E+00  -3.74472744E+00  -3.42905376E+00  -6.67738907E+00  -4.40893533E+00  -8.02014890E+00  -9.20821385E-01  -1.54059065E+01  -1.37585448E+01  -1.24992172E+01  -1.65146494E+01  -1.92064877E+01  -1.10899264E+01  -1.29053558E+01  -2.38142535E+00  -4.85358426E+00  -9.19917646E-01  -2.58411877E+00  -1.01815604E+00  -2.68235716E+00  -6.05643455E+00  -7.72063568E+00  -1.89303025E+00  -3.23894943E+00  -3.55723137E+00  -4.90315055E+00  -1.45630778E+01  -1.71453816E+01  -2.40210207E+01  -7.92123732E+00  -1.04859564E+01  -4.09599219E+00  -1.02327696E+01  -9.28764553E+00  -1.06335647E+01  -7.16458907E+00  -4.55358934E+00  -4.80598557E+00  -7.53234951E+00  -1.32580159E+01  -1.20557385E+01  -8.32100866E+00  -9.66692784E+00  -6.38467143E+00  -3.88249736E+00  -1.22086317E+01  -1.35545509E+01  -9.67969119E+00  -4.05670786E+00  -5.40262704E+00  -1.29237975E+01  -1.43286443E+00  -5.58070618E+00  -8.95454417E+00  -2.47840063E+00  -3.82431981E+00  -8.83006555E+00  -4.77425378E+01  -5.91162701E+00  -7.57582814E+00  -6.69387696E+00  -8.35807808E+00  -9.35638908E+00  -2.02476252E+01  -1.25779234E+01  -1.27502538E+01  -8.83661307E+00  -1.04941822E+01  -1.00800270E+01  -1.03324233E+01  -5.04050411E+00  -4.73177534E+00
