 TITLE = "Total Concentrations" 
VARIABLES = "X"          "Y"              "Z"            "H+"             "Al+++"          "CO2(aq)"        "NH3(aq)"        "Mg++"           "Ca++"           "Ca44++"         "Fe++"           "Fe+++"          "Cl-"            "K+"             "H2S(aq)"        "H2S34(aq)"      "SO4--"          "S34O4--"        "Na+"            "SiO2(aq)"       "O2(aq)"         "B(OH)3(aq)"     "HPO4--"         "NO3-"           "Methane(aq)"    "Formaldehyde"   "C5H7O2NSO4"     "HNO3(aq)"       "Al(OH)2+"       "Al(SO4)2-"      "Al(S34O4)2-"    "AlO2-"          "AlOH++"         "HCO3-"          "CO3--"          "CaCl+"          "Ca44Cl+"        "CaCl2(aq)"      "Ca44Cl2(aq)"    "CaOH+"          "Ca44OH+"        "CaSO4(aq)"      "CaS34O4(aq)"    "Ca44SO4(aq)"    "Ca44S34O4(aq)"  "Fe(OH)2(aq)"    "Fe(OH)3-"       "Fe(OH)4--"      "FeCl+"          "FeCl2(aq)"      "FeCl4--"        "FeOH+"          "FeSO4(aq)"      "FeS34O4(aq)"    "OH-"            "HS-"            "HS34-"          "H2PO4-"         "H3PO4(aq)"      "HAlO2(aq)"      "HSO4-"          "HS34O4-"        "HSiO3-"         "KCl(aq)"        "KHSO4(aq)"      "KHS34O4(aq)"    "KOH(aq)"        "KSO4-"          "KS34O4-"        "NaAlO2(aq)"     "NaCl(aq)"       "NaHSiO3(aq)"    "NaOH(aq)"       "NaSO4-"         "NaS34O4-"       "NH4+"           "H2(aq)"         "CaHPO4(aq)"     "Ca44HPO4(aq)"   "CaPO4-"         "Ca44PO4-"       "FeCO3(aq)"      "FeH2PO4+"       "FeHPO4(aq)"     "FePO4-"         "KHPO4-"         "PO4---"         "S--"            "S34--"          "BO2-"           "MgB(OH)4+"     
 ZONE I=           1 , J=           1 , K=           1  F=POINT
   5.00000000E-01   5.00000000E-01   5.00000000E-01  -7.61575548E+00  -1.56316373E+01  -4.00606501E+00  -1.16441649E+01  -1.29218830E+00   3.56407079E-02  -1.62856048E+00  -7.73744989E+00  -1.29999998E+01   4.56167806E-01  -1.92895944E+00  -5.85932439E+00  -6.10714444E+00  -1.98656819E+00  -3.33248765E+00  -3.62898085E-01  -4.01661579E+00  -3.74472744E+00  -3.45909371E+00  -6.72556944E+00  -4.40893533E+00  -8.00695750E+00  -9.20819624E-01  -1.54059403E+01  -1.40673919E+01  -1.30764538E+01  -1.77095481E+01  -2.04013870E+01  -1.10495195E+01  -1.37914067E+01  -2.35572333E+00  -4.51905300E+00  -9.19844497E-01  -2.58404568E+00  -1.01808523E+00  -2.68228642E+00  -5.74756118E+00  -7.41176237E+00  -1.89301177E+00  -3.23893124E+00  -3.55721296E+00  -4.90313242E+00  -1.41917353E+01  -1.64651935E+01  -2.30320014E+01  -8.16749293E+00  -1.07322144E+01  -4.34217371E+00  -1.01702250E+01  -9.53395581E+00  -1.08798753E+01  -6.85577660E+00  -4.95239890E+00  -5.20021896E+00  -7.88936114E+00  -1.39238732E+01  -1.23241773E+01  -8.62984964E+00  -9.97576910E+00  -6.08921762E+00  -3.88249966E+00  -1.25174866E+01  -1.38634061E+01  -9.37089326E+00  -4.05671712E+00  -5.40263658E+00  -1.28834066E+01  -1.43286886E+00  -5.28526838E+00  -8.64574837E+00  -2.47841202E+00  -3.82433148E+00  -8.83040449E+00  -4.77425885E+01  -5.95977919E+00  -7.62398038E+00  -6.43318353E+00  -8.09738472E+00  -9.26815636E+00  -2.08509041E+01  -1.28724043E+01  -1.27358891E+01  -8.88479298E+00  -1.02335250E+01  -1.01700096E+01  -1.04178296E+01  -4.76169845E+00  -4.45310357E+00
