 TITLE = "Total Concentrations" 
VARIABLES = "X"          "Y"              "Z"            "H+"             "Al+++"          "CO2(aq)"        "NH3(aq)"        "Mg++"           "Ca++"           "Ca44++"         "Fe++"           "Fe+++"          "Cl-"            "K+"             "H2S(aq)"        "H2S34(aq)"      "SO4--"          "S34O4--"        "Na+"            "SiO2(aq)"       "O2(aq)"         "B(OH)3(aq)"     "HPO4--"         "NO3-"           "Methane(aq)"    "Formaldehyde"   "C5H7O2NSO4"     "HNO3(aq)"       "Al(OH)2+"       "Al(SO4)2-"      "Al(S34O4)2-"    "AlO2-"          "AlOH++"         "HCO3-"          "CO3--"          "CaCl+"          "Ca44Cl+"        "CaCl2(aq)"      "Ca44Cl2(aq)"    "CaOH+"          "Ca44OH+"        "CaSO4(aq)"      "CaS34O4(aq)"    "Ca44SO4(aq)"    "Ca44S34O4(aq)"  "Fe(OH)2(aq)"    "Fe(OH)3-"       "Fe(OH)4--"      "FeCl+"          "FeCl2(aq)"      "FeCl4--"        "FeOH+"          "FeSO4(aq)"      "FeS34O4(aq)"    "OH-"            "HS-"            "HS34-"          "H2PO4-"         "H3PO4(aq)"      "HAlO2(aq)"      "HSO4-"          "HS34O4-"        "HSiO3-"         "KCl(aq)"        "KHSO4(aq)"      "KHS34O4(aq)"    "KOH(aq)"        "KSO4-"          "KS34O4-"        "NaAlO2(aq)"     "NaCl(aq)"       "NaHSiO3(aq)"    "NaOH(aq)"       "NaSO4-"         "NaS34O4-"       "NH4+"           "H2(aq)"         "CaHPO4(aq)"     "Ca44HPO4(aq)"   "CaPO4-"         "Ca44PO4-"       "FeCO3(aq)"      "FeH2PO4+"       "FeHPO4(aq)"     "FePO4-"         "KHPO4-"         "PO4---"         "S--"            "S34--"          "BO2-"           "MgB(OH)4+"     
 ZONE I=           1 , J=           1 , K=           1  F=POINT
   5.00000000E-01   5.00000000E-01   5.00000000E-01  -6.95045194E+00  -1.30388540E+01  -3.42571821E+00  -1.23088162E+01  -1.29195582E+00   3.54791073E-02  -1.62872190E+00  -7.14320730E+00  -1.29999998E+01   4.56113029E-01  -1.92896803E+00  -4.34890374E+00  -4.94331134E+00  -1.98655577E+00  -3.33247360E+00  -3.62894260E-01  -3.99442489E+00  -3.74472744E+00  -3.41190845E+00  -6.65683827E+00  -4.40893533E+00  -8.07965230E+00  -9.20829735E-01  -1.54058273E+01  -1.34020443E+01  -1.18141800E+01  -1.51167270E+01  -1.78085627E+01  -1.11177709E+01  -1.18638954E+01  -2.44071892E+00  -5.26933628E+00  -9.20076638E-01  -2.58427765E+00  -1.01832039E+00  -2.68252140E+00  -6.41297314E+00  -8.07717415E+00  -1.89307032E+00  -3.23898814E+00  -3.55727133E+00  -4.90318915E+00  -1.49279259E+01  -1.78667265E+01  -2.50988288E+01  -7.57332088E+00  -1.01380453E+01  -3.74828190E+00  -1.02412328E+01  -8.93961016E+00  -1.02855280E+01  -7.52100819E+00  -4.10732287E+00  -4.70173047E+00  -7.15533552E+00  -1.25245052E+01  -1.17270863E+01  -7.96454278E+00  -9.31046060E+00  -6.73236912E+00  -3.88250605E+00  -1.18521366E+01  -1.31980544E+01  -1.00360795E+01  -4.05670948E+00  -5.40262731E+00  -1.29516077E+01  -1.43286805E+00  -5.92836951E+00  -9.31092738E+00  -2.47839718E+00  -3.82431501E+00  -8.82988230E+00  -4.77424190E+01  -5.89111898E+00  -7.55532000E+00  -7.02986572E+00  -8.69406673E+00  -9.42411318E+00  -1.95226568E+01  -1.22093399E+01  -1.27381671E+01  -8.81606659E+00  -1.08301095E+01  -9.99021376E+00  -1.05846214E+01  -5.37985558E+00  -5.07105780E+00
