 TITLE = "Total Concentrations" 
VARIABLES = "X"          "Y"              "Z"            "H+"             "Al+++"          "CO2(aq)"        "NH3(aq)"        "Mg++"           "Ca++"           "Ca44++"         "Fe++"           "Fe+++"          "Cl-"            "K+"             "H2S(aq)"        "H2S34(aq)"      "SO4--"          "S34O4--"        "Na+"            "SiO2(aq)"       "O2(aq)"         "B(OH)3(aq)"     "HPO4--"         "NO3-"           "Methane(aq)"    "Formaldehyde"   "C5H7O2NSO4"     "HNO3(aq)"       "Al(OH)2+"       "Al(SO4)2-"      "Al(S34O4)2-"    "AlO2-"          "AlOH++"         "HCO3-"          "CO3--"          "CaCl+"          "Ca44Cl+"        "CaCl2(aq)"      "Ca44Cl2(aq)"    "CaOH+"          "Ca44OH+"        "CaSO4(aq)"      "CaS34O4(aq)"    "Ca44SO4(aq)"    "Ca44S34O4(aq)"  "Fe(OH)2(aq)"    "Fe(OH)3-"       "Fe(OH)4--"      "FeCl+"          "FeCl2(aq)"      "FeCl4--"        "FeOH+"          "FeSO4(aq)"      "FeS34O4(aq)"    "OH-"            "HS-"            "HS34-"          "H2PO4-"         "H3PO4(aq)"      "HAlO2(aq)"      "HSO4-"          "HS34O4-"        "HSiO3-"         "KCl(aq)"        "KHSO4(aq)"      "KHS34O4(aq)"    "KOH(aq)"        "KSO4-"          "KS34O4-"        "NaAlO2(aq)"     "NaCl(aq)"       "NaHSiO3(aq)"    "NaOH(aq)"       "NaSO4-"         "NaS34O4-"       "NH4+"           "H2(aq)"         "CaHPO4(aq)"     "Ca44HPO4(aq)"   "CaPO4-"         "Ca44PO4-"       "FeCO3(aq)"      "FeH2PO4+"       "FeHPO4(aq)"     "FePO4-"         "KHPO4-"         "PO4---"         "S--"            "S34--"          "BO2-"           "MgB(OH)4+"     
 ZONE I=           1 , J=           1 , K=           1  F=POINT
   5.00000000E-01   5.00000000E-01   5.00000000E-01  -7.41767522E+00  -1.48679638E+01  -3.82259538E+00  -1.18419745E+01  -1.29208782E+00   3.56077177E-02  -1.62859343E+00  -7.59263287E+00  -1.29999998E+01   4.56161286E-01  -1.92896028E+00  -5.40296691E+00  -5.65365134E+00  -1.98656325E+00  -3.33248257E+00  -3.62896767E-01  -4.00710970E+00  -3.74472744E+00  -3.43768734E+00  -6.69084818E+00  -4.40893533E+00  -8.01362111E+00  -9.20820505E-01  -1.54059170E+01  -1.38693026E+01  -1.27089207E+01  -1.69458620E+01  -1.96377007E+01  -1.10781301E+01  -1.32258070E+01  -2.37034196E+00  -4.73174861E+00  -9.19887254E-01  -2.58408840E+00  -1.01812385E+00  -2.68232500E+00  -5.94566347E+00  -7.60986462E+00  -1.89302116E+00  -3.23894048E+00  -3.55722231E+00  -4.90314163E+00  -1.44430430E+01  -1.69145894E+01  -2.36794757E+01  -8.02268568E+00  -1.05874030E+01  -4.19740989E+00  -1.02234773E+01  -9.38911519E+00  -1.07350345E+01  -7.05384203E+00  -4.69413014E+00  -4.94481457E+00  -7.65656150E+00  -1.34929853E+01  -1.21546996E+01  -8.43176632E+00  -9.77768564E+00  -6.27779978E+00  -3.88249529E+00  -1.23193935E+01  -1.36653128E+01  -9.56894842E+00  -4.05671223E+00  -5.40263155E+00  -1.29120063E+01  -1.43286340E+00  -5.47383965E+00  -8.84380245E+00  -2.47840605E+00  -3.82432537E+00  -8.83016060E+00  -4.77425536E+01  -5.92507226E+00  -7.58927341E+00  -6.59656485E+00  -8.26076600E+00  -9.33601769E+00  -2.04732917E+01  -1.26928474E+01  -1.27544204E+01  -8.85007178E+00  -1.03968865E+01  -1.01098163E+01  -1.03605007E+01  -4.93838033E+00  -4.62969106E+00
