 TITLE = "Total Concentrations" 
VARIABLES = "X"          "Y"              "Z"            "H+"             "Al+++"          "CO2(aq)"        "NH3(aq)"        "Mg++"           "Ca++"           "Ca44++"         "Fe++"           "Fe+++"          "Cl-"            "K+"             "H2S(aq)"        "H2S34(aq)"      "SO4--"          "S34O4--"        "Na+"            "SiO2(aq)"       "O2(aq)"         "B(OH)3(aq)"     "HPO4--"         "NO3-"           "Methane(aq)"    "Formaldehyde"   "C5H7O2NSO4"     "HNO3(aq)"       "Al(OH)2+"       "Al(SO4)2-"      "Al(S34O4)2-"    "AlO2-"          "AlOH++"         "HCO3-"          "CO3--"          "CaCl+"          "Ca44Cl+"        "CaCl2(aq)"      "Ca44Cl2(aq)"    "CaOH+"          "Ca44OH+"        "CaSO4(aq)"      "CaS34O4(aq)"    "Ca44SO4(aq)"    "Ca44S34O4(aq)"  "Fe(OH)2(aq)"    "Fe(OH)3-"       "Fe(OH)4--"      "FeCl+"          "FeCl2(aq)"      "FeCl4--"        "FeOH+"          "FeSO4(aq)"      "FeS34O4(aq)"    "OH-"            "HS-"            "HS34-"          "H2PO4-"         "H3PO4(aq)"      "HAlO2(aq)"      "HSO4-"          "HS34O4-"        "HSiO3-"         "KCl(aq)"        "KHSO4(aq)"      "KHS34O4(aq)"    "KOH(aq)"        "KSO4-"          "KS34O4-"        "NaAlO2(aq)"     "NaCl(aq)"       "NaHSiO3(aq)"    "NaOH(aq)"       "NaSO4-"         "NaS34O4-"       "NH4+"           "H2(aq)"         "CaHPO4(aq)"     "Ca44HPO4(aq)"   "CaPO4-"         "Ca44PO4-"       "FeCO3(aq)"      "FeH2PO4+"       "FeHPO4(aq)"     "FePO4-"         "KHPO4-"         "PO4---"         "S--"            "S34--"          "BO2-"           "MgB(OH)4+"     
 ZONE I=           1 , J=           1 , K=           1  F=POINT
   5.00000000E-01   5.00000000E-01   5.00000000E-01  -6.94180325E+00  -1.30049196E+01  -3.41921446E+00  -1.23174591E+01  -1.29195422E+00   3.54754662E-02  -1.62872554E+00  -7.13325081E+00  -1.29999998E+01   4.56111215E-01  -1.92896839E+00  -4.32884246E+00  -4.93779991E+00  -1.98655596E+00  -3.33247371E+00  -3.62894188E-01  -3.99423114E+00  -3.74472744E+00  -3.41163732E+00  -6.65671573E+00  -4.40893533E+00  -8.08270976E+00  -9.20830174E-01  -1.54058247E+01  -1.33933946E+01  -1.17975408E+01  -1.50827927E+01  -1.77746282E+01  -1.11184272E+01  -1.18386090E+01  -2.44286476E+00  -5.28013044E+00  -9.20082453E-01  -2.58428346E+00  -1.01832684E+00  -2.68252785E+00  -6.42162425E+00  -8.08582526E+00  -1.89307208E+00  -3.23898983E+00  -3.55727309E+00  -4.90319084E+00  -1.49352628E+01  -1.78827130E+01  -2.51234638E+01  -7.56336657E+00  -1.01280917E+01  -3.73833567E+00  -1.02399237E+01  -8.92965179E+00  -1.02755695E+01  -7.52965524E+00  -4.09591122E+00  -4.70486867E+00  -7.14656450E+00  -1.25070846E+01  -1.17190930E+01  -7.95589448E+00  -9.30181223E+00  -6.74082495E+00  -3.88250693E+00  -1.18434875E+01  -1.31894052E+01  -1.00447256E+01  -4.05670994E+00  -5.40262769E+00  -1.29522629E+01  -1.43286861E+00  -5.93682421E+00  -9.31957324E+00  -2.47839733E+00  -3.82431508E+00  -8.82987946E+00  -4.77424151E+01  -5.89099802E+00  -7.55519903E+00  -7.03839433E+00  -8.70259534E+00  -9.42494893E+00  -1.95039298E+01  -1.21992588E+01  -1.27367356E+01  -8.81594433E+00  -1.08386359E+01  -9.98745027E+00  -1.05964077E+01  -5.38823403E+00  -5.07943532E+00
