 TITLE = "Total Concentrations" 
VARIABLES = "X"          "Y"              "Z"            "H+"             "Al+++"          "CO2(aq)"        "NH3(aq)"        "Mg++"           "Ca++"           "Ca44++"         "Fe++"           "Fe+++"          "Cl-"            "K+"             "H2S(aq)"        "H2S34(aq)"      "SO4--"          "S34O4--"        "Na+"            "SiO2(aq)"       "O2(aq)"         "B(OH)3(aq)"     "HPO4--"         "NO3-"           "Methane(aq)"    "Formaldehyde"   "C5H7O2NSO4"     "HNO3(aq)"       "Al(OH)2+"       "Al(SO4)2-"      "Al(S34O4)2-"    "AlO2-"          "AlOH++"         "HCO3-"          "CO3--"          "CaCl+"          "Ca44Cl+"        "CaCl2(aq)"      "Ca44Cl2(aq)"    "CaOH+"          "Ca44OH+"        "CaSO4(aq)"      "CaS34O4(aq)"    "Ca44SO4(aq)"    "Ca44S34O4(aq)"  "Fe(OH)2(aq)"    "Fe(OH)3-"       "Fe(OH)4--"      "FeCl+"          "FeCl2(aq)"      "FeCl4--"        "FeOH+"          "FeSO4(aq)"      "FeS34O4(aq)"    "OH-"            "HS-"            "HS34-"          "H2PO4-"         "H3PO4(aq)"      "HAlO2(aq)"      "HSO4-"          "HS34O4-"        "HSiO3-"         "KCl(aq)"        "KHSO4(aq)"      "KHS34O4(aq)"    "KOH(aq)"        "KSO4-"          "KS34O4-"        "NaAlO2(aq)"     "NaCl(aq)"       "NaHSiO3(aq)"    "NaOH(aq)"       "NaSO4-"         "NaS34O4-"       "NH4+"           "H2(aq)"         "CaHPO4(aq)"     "Ca44HPO4(aq)"   "CaPO4-"         "Ca44PO4-"       "FeCO3(aq)"      "FeH2PO4+"       "FeHPO4(aq)"     "FePO4-"         "KHPO4-"         "PO4---"         "S--"            "S34--"          "BO2-"           "MgB(OH)4+"     
 ZONE I=           1 , J=           1 , K=           1  F=POINT
   5.00000000E-01   5.00000000E-01   5.00000000E-01  -5.98998232E+00  -9.68352723E+00  -2.95195017E+00  -1.32687419E+01  -1.29145392E+00   3.49177612E-02  -1.62928635E+00  -6.51909729E+00  -1.29999998E+01   4.55867983E-01  -1.92961820E+00  -3.16732655E+00  -4.51771865E+00  -1.98831843E+00  -3.33410327E+00  -3.62874260E-01  -3.84457979E+00  -3.74472744E+00  -3.39949255E+00  -6.76539088E+00  -4.40893534E+00  -9.46243858E+00  -9.21709893E-01  -1.54054663E+01  -1.24414339E+01  -1.03794809E+01  -1.17648842E+01  -1.44564539E+01  -1.16037497E+01  -9.46893755E+00  -2.92754464E+00  -6.71658106E+00  -9.20933310E-01  -2.58513742E+00  -1.01925675E+00  -2.68346086E+00  -7.37383421E+00  -9.03803833E+00  -1.89510470E+00  -3.24088954E+00  -3.55930881E+00  -4.90509365E+00  -1.62241997E+01  -2.01235940E+01  -2.83161370E+01  -6.94950619E+00  -9.51431034E+00  -3.12557248E+00  -1.05774225E+01  -8.31697319E+00  -9.66275802E+00  -8.48124808E+00  -3.88634652E+00  -5.23673862E+00  -6.30344748E+00  -1.07120234E+01  -1.12524714E+01  -7.00586478E+00  -8.35164962E+00  -7.54311777E+00  -3.88321925E+00  -1.08939434E+01  -1.22397282E+01  -1.09967971E+01  -4.05911005E+00  -5.40489488E+00  -1.34374178E+01  -1.43292774E+00  -6.73894946E+00  -1.02709915E+01  -2.48014423E+00  -3.82592907E+00  -8.82975397E+00  -4.77418776E+01  -5.99994332E+00  -7.66414743E+00  -8.09928380E+00  -9.76348792E+00  -1.02469799E+01  -1.80467257E+01  -1.16934929E+01  -1.31829138E+01  -8.92525711E+00  -1.18991706E+01  -1.07296326E+01  -1.20800247E+01  -6.32803343E+00  -6.01882817E+00
