 TITLE = "Total Concentrations" 
VARIABLES = "X"          "Y"              "Z"            "H+"             "Al+++"          "CO2(aq)"        "NH3(aq)"        "Mg++"           "Ca++"           "Ca44++"         "Fe++"           "Fe+++"          "Cl-"            "K+"             "H2S(aq)"        "H2S34(aq)"      "SO4--"          "S34O4--"        "Na+"            "SiO2(aq)"       "O2(aq)"         "B(OH)3(aq)"     "HPO4--"         "NO3-"           "Methane(aq)"    "Formaldehyde"   "C5H7O2NSO4"     "HNO3(aq)"       "Al(OH)2+"       "Al(SO4)2-"      "Al(S34O4)2-"    "AlO2-"          "AlOH++"         "HCO3-"          "CO3--"          "CaCl+"          "Ca44Cl+"        "CaCl2(aq)"      "Ca44Cl2(aq)"    "CaOH+"          "Ca44OH+"        "CaSO4(aq)"      "CaS34O4(aq)"    "Ca44SO4(aq)"    "Ca44S34O4(aq)"  "Fe(OH)2(aq)"    "Fe(OH)3-"       "Fe(OH)4--"      "FeCl+"          "FeCl2(aq)"      "FeCl4--"        "FeOH+"          "FeSO4(aq)"      "FeS34O4(aq)"    "OH-"            "HS-"            "HS34-"          "H2PO4-"         "H3PO4(aq)"      "HAlO2(aq)"      "HSO4-"          "HS34O4-"        "HSiO3-"         "KCl(aq)"        "KHSO4(aq)"      "KHS34O4(aq)"    "KOH(aq)"        "KSO4-"          "KS34O4-"        "NaAlO2(aq)"     "NaCl(aq)"       "NaHSiO3(aq)"    "NaOH(aq)"       "NaSO4-"         "NaS34O4-"       "NH4+"           "H2(aq)"         "CaHPO4(aq)"     "Ca44HPO4(aq)"   "CaPO4-"         "Ca44PO4-"       "FeCO3(aq)"      "FeH2PO4+"       "FeHPO4(aq)"     "FePO4-"         "KHPO4-"         "PO4---"         "S--"            "S34--"          "BO2-"           "MgB(OH)4+"     
 ZONE I=           1 , J=           1 , K=           1  F=POINT
   5.00000000E-01   5.00000000E-01   5.00000000E-01  -7.08737978E+00  -1.35766099E+01  -3.53433301E+00  -1.21719828E+01  -1.29198389E+00   3.55280876E-02  -1.62867297E+00  -7.28308455E+00  -1.29999998E+01   4.56134137E-01  -1.92896403E+00  -4.66640713E+00  -5.03556445E+00  -1.98655520E+00  -3.33247381E+00  -3.62895027E-01  -3.99743795E+00  -3.74472744E+00  -3.41697388E+00  -6.66103773E+00  -4.40893533E+00  -8.04559416E+00  -9.20824902E-01  -1.54058630E+01  -1.35389861E+01  -1.20781110E+01  -1.56544858E+01  -1.83463230E+01  -1.11078721E+01  -1.22647334E+01  -2.41239360E+00  -5.10408812E+00  -9.20001570E-01  -2.58420263E+00  -1.01824057E+00  -2.68244163E+00  -6.27601311E+00  -7.94021417E+00  -1.89304942E+00  -3.23896802E+00  -3.55725047E+00  -4.90316908E+00  -1.47940024E+01  -1.75958629E+01  -2.46910402E+01  -7.71317204E+00  -1.02778917E+01  -3.88803311E+00  -1.02441990E+01  -9.07951549E+00  -1.04254341E+01  -7.38410308E+00  -4.28788543E+00  -4.65704275E+00  -7.29645996E+00  -1.28025697E+01  -1.18541276E+01  -8.10146719E+00  -9.44738579E+00  -6.59844205E+00  -3.88249895E+00  -1.19890733E+01  -1.33349919E+01  -9.89918741E+00  -4.05670612E+00  -5.40262472E+00  -1.29417243E+01  -1.43286407E+00  -5.79445791E+00  -9.17403844E+00  -2.47839694E+00  -3.82431554E+00  -8.82993569E+00  -4.77424726E+01  -5.89529811E+00  -7.55949916E+00  -6.89710472E+00  -8.56130577E+00  -9.39876877E+00  -1.98036519E+01  -1.23534453E+01  -1.27453323E+01  -8.82026325E+00  -1.06973773E+01  -1.00338558E+01  -1.04030132E+01  -5.24798089E+00  -4.93920182E+00
