 TITLE = "Total Concentrations" 
VARIABLES = "X"          "Y"              "Z"            "H+"             "Al+++"          "CO2(aq)"        "NH3(aq)"        "Mg++"           "Ca++"           "Ca44++"         "Fe++"           "Fe+++"          "Cl-"            "K+"             "H2S(aq)"        "H2S34(aq)"      "SO4--"          "S34O4--"        "Na+"            "SiO2(aq)"       "O2(aq)"         "B(OH)3(aq)"     "HPO4--"         "NO3-"           "Methane(aq)"    "Formaldehyde"   "C5H7O2NSO4"     "HNO3(aq)"       "Al(OH)2+"       "Al(SO4)2-"      "Al(S34O4)2-"    "AlO2-"          "AlOH++"         "HCO3-"          "CO3--"          "CaCl+"          "Ca44Cl+"        "CaCl2(aq)"      "Ca44Cl2(aq)"    "CaOH+"          "Ca44OH+"        "CaSO4(aq)"      "CaS34O4(aq)"    "Ca44SO4(aq)"    "Ca44S34O4(aq)"  "Fe(OH)2(aq)"    "Fe(OH)3-"       "Fe(OH)4--"      "FeCl+"          "FeCl2(aq)"      "FeCl4--"        "FeOH+"          "FeSO4(aq)"      "FeS34O4(aq)"    "OH-"            "HS-"            "HS34-"          "H2PO4-"         "H3PO4(aq)"      "HAlO2(aq)"      "HSO4-"          "HS34O4-"        "HSiO3-"         "KCl(aq)"        "KHSO4(aq)"      "KHS34O4(aq)"    "KOH(aq)"        "KSO4-"          "KS34O4-"        "NaAlO2(aq)"     "NaCl(aq)"       "NaHSiO3(aq)"    "NaOH(aq)"       "NaSO4-"         "NaS34O4-"       "NH4+"           "H2(aq)"         "CaHPO4(aq)"     "Ca44HPO4(aq)"   "CaPO4-"         "Ca44PO4-"       "FeCO3(aq)"      "FeH2PO4+"       "FeHPO4(aq)"     "FePO4-"         "KHPO4-"         "PO4---"         "S--"            "S34--"          "BO2-"           "MgB(OH)4+"     
 ZONE I=           1 , J=           1 , K=           1  F=POINT
   5.00000000E-01   5.00000000E-01   5.00000000E-01  -7.17767175E+00  -1.39310167E+01  -3.61064727E+00  -1.20817581E+01  -1.29200620E+00   3.55530975E-02  -1.62864799E+00  -7.35344973E+00  -1.29999998E+01   4.56141998E-01  -1.92896253E+00  -4.85988577E+00  -5.11452671E+00  -1.98655625E+00  -3.33247514E+00  -3.62895295E-01  -3.99957284E+00  -3.74472744E+00  -3.42125609E+00  -6.66623790E+00  -4.40893533E+00  -8.03296571E+00  -9.20823144E-01  -1.54058818E+01  -1.36292854E+01  -1.22519501E+01  -1.60088968E+01  -1.87007346E+01  -1.11011408E+01  -1.25288534E+01  -2.39840944E+00  -4.99981463E+00  -9.19966081E-01  -2.58416716E+00  -1.01820581E+00  -2.68240690E+00  -6.18570497E+00  -7.84990606E+00  -1.89304050E+00  -3.23895940E+00  -3.55724159E+00  -4.90316048E+00  -1.46838125E+01  -1.73953746E+01  -2.44002615E+01  -7.78352675E+00  -1.03482472E+01  -3.95834498E+00  -1.02242810E+01  -9.14989677E+00  -1.04958157E+01  -7.29382306E+00  -4.39106529E+00  -4.64570623E+00  -7.39195058E+00  -1.29883588E+01  -1.19376948E+01  -8.19175868E+00  -9.53767757E+00  -6.51027853E+00  -3.88249905E+00  -1.20793719E+01  -1.34252908E+01  -9.80891486E+00  -4.05670630E+00  -5.40262519E+00  -1.29350011E+01  -1.43286507E+00  -5.70630239E+00  -9.08376680E+00  -2.47839802E+00  -3.82431691E+00  -8.82998132E+00  -4.77425007E+01  -5.90048832E+00  -7.56468941E+00  -6.81199652E+00  -8.47619760E+00  -9.36487439E+00  -1.99695042E+01  -1.24290257E+01  -1.27306143E+01  -8.82546256E+00  -1.06122835E+01  -1.00467476E+01  -1.03013886E+01  -5.16196468E+00  -4.85320302E+00
