 TITLE = "Total Concentrations" 
VARIABLES = "X"          "Y"              "Z"            "H+"             "Al+++"          "CO2(aq)"        "NH3(aq)"        "Mg++"           "Ca++"           "Ca44++"         "Fe++"           "Fe+++"          "Cl-"            "K+"             "H2S(aq)"        "H2S34(aq)"      "SO4--"          "S34O4--"        "Na+"            "SiO2(aq)"       "O2(aq)"         "B(OH)3(aq)"     "HPO4--"         "NO3-"           "Methane(aq)"    "Formaldehyde"   "C5H7O2NSO4"     "HNO3(aq)"       "Al(OH)2+"       "Al(SO4)2-"      "Al(S34O4)2-"    "AlO2-"          "AlOH++"         "HCO3-"          "CO3--"          "CaCl+"          "Ca44Cl+"        "CaCl2(aq)"      "Ca44Cl2(aq)"    "CaOH+"          "Ca44OH+"        "CaSO4(aq)"      "CaS34O4(aq)"    "Ca44SO4(aq)"    "Ca44S34O4(aq)"  "Fe(OH)2(aq)"    "Fe(OH)3-"       "Fe(OH)4--"      "FeCl+"          "FeCl2(aq)"      "FeCl4--"        "FeOH+"          "FeSO4(aq)"      "FeS34O4(aq)"    "OH-"            "HS-"            "HS34-"          "H2PO4-"         "H3PO4(aq)"      "HAlO2(aq)"      "HSO4-"          "HS34O4-"        "HSiO3-"         "KCl(aq)"        "KHSO4(aq)"      "KHS34O4(aq)"    "KOH(aq)"        "KSO4-"          "KS34O4-"        "NaAlO2(aq)"     "NaCl(aq)"       "NaHSiO3(aq)"    "NaOH(aq)"       "NaSO4-"         "NaS34O4-"       "NH4+"           "H2(aq)"         "CaHPO4(aq)"     "Ca44HPO4(aq)"   "CaPO4-"         "Ca44PO4-"       "FeCO3(aq)"      "FeH2PO4+"       "FeHPO4(aq)"     "FePO4-"         "KHPO4-"         "PO4---"         "S--"            "S34--"          "BO2-"           "MgB(OH)4+"     
 ZONE I=           1 , J=           1 , K=           1  F=POINT
   5.00000000E-01   5.00000000E-01   5.00000000E-01  -6.97900904E+00  -1.31509462E+01  -3.44750990E+00  -1.22802784E+01  -1.29196123E+00   3.54906571E-02  -1.62871036E+00  -7.17552276E+00  -1.29999998E+01   4.56118619E-01  -1.92896695E+00  -4.41572263E+00  -4.96178141E+00  -1.98655532E+00  -3.33247336E+00  -3.62894477E-01  -3.99505677E+00  -3.74472744E+00  -3.41284173E+00  -6.65736160E+00  -4.40893533E+00  -8.07044527E+00  -9.20828417E-01  -1.54058355E+01  -1.34306046E+01  -1.18691651E+01  -1.52288193E+01  -1.79206554E+01  -1.11156478E+01  -1.19474328E+01  -2.43395069E+00  -5.23401210E+00  -9.20058351E-01  -2.58425937E+00  -1.01830028E+00  -2.68250130E+00  -6.38440836E+00  -8.04860938E+00  -1.89306492E+00  -3.23898296E+00  -3.55726594E+00  -4.90318398E+00  -1.49031398E+01  -1.78133805E+01  -2.50169264E+01  -7.60562961E+00  -1.01703522E+01  -3.78056541E+00  -1.02449950E+01  -8.97193178E+00  -1.03178498E+01  -7.49245633E+00  -4.14558167E+00  -4.69164045E+00  -7.18441529E+00  -1.25821449E+01  -1.17535232E+01  -7.99309877E+00  -9.33901680E+00  -6.70444106E+00  -3.88250353E+00  -1.18806952E+01  -1.32266133E+01  -1.00075305E+01  -4.05670823E+00  -5.40262627E+00  -1.29494882E+01  -1.43286645E+00  -5.90044506E+00  -9.28237929E+00  -2.47839685E+00  -3.82431488E+00  -8.82989209E+00  -4.77424314E+01  -5.89163737E+00  -7.55583839E+00  -7.00182418E+00  -8.66602520E+00  -9.42111056E+00  -1.95840505E+01  -1.22421853E+01  -1.27424526E+01  -8.81658912E+00  -1.08020748E+01  -9.99991716E+00  -1.05459759E+01  -5.35222894E+00  -5.04343441E+00
