 TITLE = "Total Concentrations" 
VARIABLES = "X"          "Y"              "Z"            "H+"             "Al+++"          "CO2(aq)"        "NH3(aq)"        "Mg++"           "Ca++"           "Ca44++"         "Fe++"           "Fe+++"          "Cl-"            "K+"             "H2S(aq)"        "H2S34(aq)"      "SO4--"          "S34O4--"        "Na+"            "SiO2(aq)"       "O2(aq)"         "B(OH)3(aq)"     "HPO4--"         "NO3-"           "Methane(aq)"    "Formaldehyde"   "C5H7O2NSO4"     "HNO3(aq)"       "Al(OH)2+"       "Al(SO4)2-"      "Al(S34O4)2-"    "AlO2-"          "AlOH++"         "HCO3-"          "CO3--"          "CaCl+"          "Ca44Cl+"        "CaCl2(aq)"      "Ca44Cl2(aq)"    "CaOH+"          "Ca44OH+"        "CaSO4(aq)"      "CaS34O4(aq)"    "Ca44SO4(aq)"    "Ca44S34O4(aq)"  "Fe(OH)2(aq)"    "Fe(OH)3-"       "Fe(OH)4--"      "FeCl+"          "FeCl2(aq)"      "FeCl4--"        "FeOH+"          "FeSO4(aq)"      "FeS34O4(aq)"    "OH-"            "HS-"            "HS34-"          "H2PO4-"         "H3PO4(aq)"      "HAlO2(aq)"      "HSO4-"          "HS34O4-"        "HSiO3-"         "KCl(aq)"        "KHSO4(aq)"      "KHS34O4(aq)"    "KOH(aq)"        "KSO4-"          "KS34O4-"        "NaAlO2(aq)"     "NaCl(aq)"       "NaHSiO3(aq)"    "NaOH(aq)"       "NaSO4-"         "NaS34O4-"       "NH4+"           "H2(aq)"         "CaHPO4(aq)"     "Ca44HPO4(aq)"   "CaPO4-"         "Ca44PO4-"       "FeCO3(aq)"      "FeH2PO4+"       "FeHPO4(aq)"     "FePO4-"         "KHPO4-"         "PO4---"         "S--"            "S34--"          "BO2-"           "MgB(OH)4+"     
 ZONE I=           1 , J=           1 , K=           1  F=POINT
   5.00000000E-01   5.00000000E-01   5.00000000E-01  -6.91055781E+00  -1.28823889E+01  -3.39609354E+00  -1.23486836E+01  -1.29194856E+00   3.54617702E-02  -1.62873923E+00  -7.09698851E+00  -1.29999998E+01   4.56104221E-01  -1.92896983E+00  -4.25748933E+00  -4.91821112E+00  -1.98655686E+00  -3.33247434E+00  -3.62893908E-01  -3.99351834E+00  -3.74472744E+00  -3.41070026E+00  -6.65641159E+00  -4.40893533E+00  -8.09488705E+00  -9.20831932E-01  -1.54058151E+01  -1.33621454E+01  -1.17374926E+01  -1.49602627E+01  -1.76520977E+01  -1.11208630E+01  -1.17473210E+01  -2.45099259E+00  -5.31950236E+00  -9.20104488E-01  -2.58430548E+00  -1.01835145E+00  -2.68255245E+00  -6.45287884E+00  -8.11707984E+00  -1.89307894E+00  -3.23899642E+00  -3.55727994E+00  -4.90319742E+00  -1.49614765E+01  -1.79401755E+01  -2.52121709E+01  -7.52711261E+00  -1.00918403E+01  -3.70211258E+00  -1.02349023E+01  -8.89338266E+00  -1.02393001E+01  -7.56089454E+00  -4.05580702E+00  -4.71652881E+00  -7.11501570E+00  -1.24442870E+01  -1.16902800E+01  -7.92465073E+00  -9.27056820E+00  -6.77136089E+00  -3.88251050E+00  -1.18122407E+01  -1.31581582E+01  -1.00759618E+01  -4.05671196E+00  -5.40262943E+00  -1.29546943E+01  -1.43287091E+00  -5.96735590E+00  -9.35080810E+00  -2.47839807E+00  -3.82431555E+00  -8.82986966E+00  -4.77424007E+01  -5.89069984E+00  -7.55490084E+00  -7.06934491E+00  -8.73354590E+00  -9.42805139E+00  -1.94361205E+01  -1.21626847E+01  -1.27314102E+01  -8.81564130E+00  -1.08695783E+01  -9.97858951E+00  -1.06393113E+01  -5.41854572E+00  -5.10974388E+00
