 TITLE = "Total Concentrations" 
VARIABLES = "X"          "Y"              "Z"            "H+"             "Al+++"          "CO2(aq)"        "NH3(aq)"        "Mg++"           "Ca++"           "Ca44++"         "Fe++"           "Fe+++"          "Cl-"            "K+"             "H2S(aq)"        "H2S34(aq)"      "SO4--"          "S34O4--"        "Na+"            "SiO2(aq)"       "O2(aq)"         "B(OH)3(aq)"     "HPO4--"         "NO3-"           "Methane(aq)"    "Formaldehyde"   "C5H7O2NSO4"     "HNO3(aq)"       "Al(OH)2+"       "Al(SO4)2-"      "Al(S34O4)2-"    "AlO2-"          "AlOH++"         "HCO3-"          "CO3--"          "CaCl+"          "Ca44Cl+"        "CaCl2(aq)"      "Ca44Cl2(aq)"    "CaOH+"          "Ca44OH+"        "CaSO4(aq)"      "CaS34O4(aq)"    "Ca44SO4(aq)"    "Ca44S34O4(aq)"  "Fe(OH)2(aq)"    "Fe(OH)3-"       "Fe(OH)4--"      "FeCl+"          "FeCl2(aq)"      "FeCl4--"        "FeOH+"          "FeSO4(aq)"      "FeS34O4(aq)"    "OH-"            "HS-"            "HS34-"          "H2PO4-"         "H3PO4(aq)"      "HAlO2(aq)"      "HSO4-"          "HS34O4-"        "HSiO3-"         "KCl(aq)"        "KHSO4(aq)"      "KHS34O4(aq)"    "KOH(aq)"        "KSO4-"          "KS34O4-"        "NaAlO2(aq)"     "NaCl(aq)"       "NaHSiO3(aq)"    "NaOH(aq)"       "NaSO4-"         "NaS34O4-"       "NH4+"           "H2(aq)"         "CaHPO4(aq)"     "Ca44HPO4(aq)"   "CaPO4-"         "Ca44PO4-"       "FeCO3(aq)"      "FeH2PO4+"       "FeHPO4(aq)"     "FePO4-"         "KHPO4-"         "PO4---"         "S--"            "S34--"          "BO2-"           "MgB(OH)4+"     
 ZONE I=           1 , J=           1 , K=           1  F=POINT
   5.00000000E-01   5.00000000E-01   5.00000000E-01  -7.00076734E+00  -1.32363875E+01  -3.46443400E+00  -1.22585348E+01  -1.29196549E+00   3.54989686E-02  -1.62870206E+00  -7.19930908E+00  -1.29999998E+01   4.56122449E-01  -1.92896623E+00  -4.46687936E+00  -4.97613142E+00  -1.98655513E+00  -3.33247331E+00  -3.62894622E-01  -3.99553288E+00  -3.74472744E+00  -3.41359371E+00  -6.65788344E+00  -4.40893533E+00  -8.06427609E+00  -9.20827538E-01  -1.54058415E+01  -1.34523653E+01  -1.19110949E+01  -1.53142608E+01  -1.80060972E+01  -1.11140653E+01  -1.20111174E+01  -2.42911442E+00  -5.20741836E+00  -9.20045375E-01  -2.58424640E+00  -1.01828622E+00  -2.68248725E+00  -6.36264456E+00  -8.02684558E+00  -1.89306122E+00  -3.23897939E+00  -3.55726225E+00  -4.90318042E+00  -1.48834187E+01  -1.77718990E+01  -2.49536871E+01  -7.62941126E+00  -1.01941328E+01  -3.80432944E+00  -1.02470258E+01  -8.99572270E+00  -1.03416409E+01  -7.47070183E+00  -4.17497791E+00  -4.68422997E+00  -7.20669495E+00  -1.26261849E+01  -1.17737010E+01  -8.01485640E+00  -9.36077458E+00  -6.68315681E+00  -3.88250200E+00  -1.19024549E+01  -1.32483731E+01  -9.98577809E+00  -4.05670751E+00  -5.40262569E+00  -1.29479083E+01  -1.43286551E+00  -5.87916342E+00  -9.26062752E+00  -2.47839673E+00  -3.82431490E+00  -8.82990000E+00  -4.77424403E+01  -5.89215569E+00  -7.55635672E+00  -6.98058213E+00  -8.64478316E+00  -9.41830758E+00  -1.96301154E+01  -1.22664983E+01  -1.27450052E+01  -8.81711044E+00  -1.07808377E+01  -1.00075563E+01  -1.05168084E+01  -5.33122055E+00  -5.02242871E+00
