 TITLE = "Total Concentrations" 
VARIABLES = "X"          "Y"              "Z"            "H+"             "Al+++"          "CO2(aq)"        "NH3(aq)"        "Mg++"           "Ca++"           "Ca44++"         "Fe++"           "Fe+++"          "Cl-"            "K+"             "H2S(aq)"        "H2S34(aq)"      "SO4--"          "S34O4--"        "Na+"            "SiO2(aq)"       "O2(aq)"         "B(OH)3(aq)"     "HPO4--"         "NO3-"           "Methane(aq)"    "Formaldehyde"   "C5H7O2NSO4"     "HNO3(aq)"       "Al(OH)2+"       "Al(SO4)2-"      "Al(S34O4)2-"    "AlO2-"          "AlOH++"         "HCO3-"          "CO3--"          "CaCl+"          "Ca44Cl+"        "CaCl2(aq)"      "Ca44Cl2(aq)"    "CaOH+"          "Ca44OH+"        "CaSO4(aq)"      "CaS34O4(aq)"    "Ca44SO4(aq)"    "Ca44S34O4(aq)"  "Fe(OH)2(aq)"    "Fe(OH)3-"       "Fe(OH)4--"      "FeCl+"          "FeCl2(aq)"      "FeCl4--"        "FeOH+"          "FeSO4(aq)"      "FeS34O4(aq)"    "OH-"            "HS-"            "HS34-"          "H2PO4-"         "H3PO4(aq)"      "HAlO2(aq)"      "HSO4-"          "HS34O4-"        "HSiO3-"         "KCl(aq)"        "KHSO4(aq)"      "KHS34O4(aq)"    "KOH(aq)"        "KSO4-"          "KS34O4-"        "NaAlO2(aq)"     "NaCl(aq)"       "NaHSiO3(aq)"    "NaOH(aq)"       "NaSO4-"         "NaS34O4-"       "NH4+"           "H2(aq)"         "CaHPO4(aq)"     "Ca44HPO4(aq)"   "CaPO4-"         "Ca44PO4-"       "FeCO3(aq)"      "FeH2PO4+"       "FeHPO4(aq)"     "FePO4-"         "KHPO4-"         "PO4---"         "S--"            "S34--"          "BO2-"           "MgB(OH)4+"     
 ZONE I=           1 , J=           1 , K=           1  F=POINT
   5.00000000E-01   5.00000000E-01   5.00000000E-01  -7.06985943E+00  -1.35077901E+01  -3.51989075E+00  -1.21894907E+01  -1.29197995E+00   3.55226764E-02  -1.62867838E+00  -7.26774836E+00  -1.29999998E+01   4.56132200E-01  -1.92896440E+00  -4.62701459E+00  -5.02325033E+00  -1.98655511E+00  -3.33247364E+00  -3.62894965E-01  -3.99704669E+00  -3.74472744E+00  -3.41623694E+00  -6.66025845E+00  -4.40893533E+00  -8.04872791E+00  -9.20825341E-01  -1.54058589E+01  -1.35214642E+01  -1.20443284E+01  -1.55856654E+01  -1.82775025E+01  -1.11091273E+01  -1.22134328E+01  -2.41547310E+00  -5.12468740E+00  -9.20009485E-01  -2.58421054E+00  -1.01824856E+00  -2.68244961E+00  -6.29353696E+00  -7.95773802E+00  -1.89305147E+00  -3.23897000E+00  -3.55725252E+00  -4.90317105E+00  -1.48137007E+01  -1.76330829E+01  -2.47457803E+01  -7.69783836E+00  -1.02625581E+01  -3.87270941E+00  -1.02463812E+01  -9.06417594E+00  -1.04100945E+01  -7.40162084E+00  -4.26601473E+00  -4.66225046E+00  -7.27816064E+00  -1.27667486E+01  -1.18378611E+01  -8.08394706E+00  -9.42986560E+00  -6.61557254E+00  -3.88249920E+00  -1.19715517E+01  -1.33174703E+01  -9.91670360E+00  -4.05670625E+00  -5.40262479E+00  -1.29429778E+01  -1.43286408E+00  -5.81158667E+00  -9.19155439E+00  -2.47839683E+00  -3.82431537E+00  -8.82992789E+00  -4.77424665E+01  -5.89452097E+00  -7.55872202E+00  -6.91384933E+00  -8.57805039E+00  -9.40402884E+00  -1.97700171E+01  -1.23373265E+01  -1.27467354E+01  -8.81948420E+00  -1.07141188E+01  -1.00295047E+01  -1.04257404E+01  -5.26476571E+00  -4.95598377E+00
