 TITLE = "Total Concentrations" 
VARIABLES = "X"          "Y"              "Z"            "H+"             "Al+++"          "CO2(aq)"        "NH3(aq)"        "Mg++"           "Ca++"           "Ca44++"         "Fe++"           "Fe+++"          "Cl-"            "K+"             "H2S(aq)"        "H2S34(aq)"      "SO4--"          "S34O4--"        "Na+"            "SiO2(aq)"       "O2(aq)"         "B(OH)3(aq)"     "HPO4--"         "NO3-"           "Methane(aq)"    "Formaldehyde"   "C5H7O2NSO4"     "HNO3(aq)"       "Al(OH)2+"       "Al(SO4)2-"      "Al(S34O4)2-"    "AlO2-"          "AlOH++"         "HCO3-"          "CO3--"          "CaCl+"          "Ca44Cl+"        "CaCl2(aq)"      "Ca44Cl2(aq)"    "CaOH+"          "Ca44OH+"        "CaSO4(aq)"      "CaS34O4(aq)"    "Ca44SO4(aq)"    "Ca44S34O4(aq)"  "Fe(OH)2(aq)"    "Fe(OH)3-"       "Fe(OH)4--"      "FeCl+"          "FeCl2(aq)"      "FeCl4--"        "FeOH+"          "FeSO4(aq)"      "FeS34O4(aq)"    "OH-"            "HS-"            "HS34-"          "H2PO4-"         "H3PO4(aq)"      "HAlO2(aq)"      "HSO4-"          "HS34O4-"        "HSiO3-"         "KCl(aq)"        "KHSO4(aq)"      "KHS34O4(aq)"    "KOH(aq)"        "KSO4-"          "KS34O4-"        "NaAlO2(aq)"     "NaCl(aq)"       "NaHSiO3(aq)"    "NaOH(aq)"       "NaSO4-"         "NaS34O4-"       "NH4+"           "H2(aq)"         "CaHPO4(aq)"     "Ca44HPO4(aq)"   "CaPO4-"         "Ca44PO4-"       "FeCO3(aq)"      "FeH2PO4+"       "FeHPO4(aq)"     "FePO4-"         "KHPO4-"         "PO4---"         "S--"            "S34--"          "BO2-"           "MgB(OH)4+"     
 ZONE I=           1 , J=           1 , K=           1  F=POINT
   5.00000000E-01   5.00000000E-01   5.00000000E-01  -7.20359116E+00  -1.40325995E+01  -3.63274363E+00  -1.20558598E+01  -1.29201335E+00   3.55602312E-02  -1.62864086E+00  -7.38233790E+00  -1.29999998E+01   4.56145037E-01  -1.92896216E+00  -4.91779450E+00  -5.17196516E+00  -1.98655668E+00  -3.33247564E+00  -3.62895446E-01  -4.00024576E+00  -3.74472744E+00  -3.42264984E+00  -6.66811125E+00  -4.40893533E+00  -8.02978253E+00  -9.20822704E-01  -1.54058871E+01  -1.36552069E+01  -1.23016987E+01  -1.61104811E+01  -1.88023191E+01  -1.10990545E+01  -1.26045183E+01  -2.39458455E+00  -4.97007108E+00  -9.19955163E-01  -2.58415626E+00  -1.01819431E+00  -2.68239540E+00  -6.15978094E+00  -7.82398203E+00  -1.89303808E+00  -3.23895705E+00  -3.55723918E+00  -4.90315814E+00  -1.46608701E+01  -1.73465109E+01  -2.43254788E+01  -7.81241114E+00  -1.03771310E+01  -3.98721478E+00  -1.02272523E+01  -9.17878965E+00  -1.05247086E+01  -7.26790705E+00  -4.42305266E+00  -4.67722332E+00  -7.41974291E+00  -1.30420723E+01  -1.19615297E+01  -8.21767809E+00  -9.56359706E+00  -6.48503019E+00  -3.88249834E+00  -1.21052934E+01  -1.34512124E+01  -9.78300103E+00  -4.05670654E+00  -5.40262550E+00  -1.29329171E+01  -1.43286463E+00  -5.68105641E+00  -9.05785324E+00  -2.47839853E+00  -3.82431750E+00  -8.82999626E+00  -4.77425087E+01  -5.90235882E+00  -7.56655992E+00  -6.78794577E+00  -8.45214686E+00  -9.36402298E+00  -2.00261837E+01  -1.24597915E+01  -1.27354589E+01  -8.82733572E+00  -1.05882368E+01  -1.00528167E+01  -1.03069873E+01  -5.13743718E+00  -4.82868127E+00
