 TITLE = "Total Concentrations" 
VARIABLES = "X"          "Y"              "Z"            "H+"             "Al+++"          "CO2(aq)"        "NH3(aq)"        "Mg++"           "Ca++"           "Ca44++"         "Fe++"           "Fe+++"          "Cl-"            "K+"             "H2S(aq)"        "H2S34(aq)"      "SO4--"          "S34O4--"        "Na+"            "SiO2(aq)"       "O2(aq)"         "B(OH)3(aq)"     "HPO4--"         "NO3-"           "Methane(aq)"    "Formaldehyde"   "C5H7O2NSO4"     "HNO3(aq)"       "Al(OH)2+"       "Al(SO4)2-"      "Al(S34O4)2-"    "AlO2-"          "AlOH++"         "HCO3-"          "CO3--"          "CaCl+"          "Ca44Cl+"        "CaCl2(aq)"      "Ca44Cl2(aq)"    "CaOH+"          "Ca44OH+"        "CaSO4(aq)"      "CaS34O4(aq)"    "Ca44SO4(aq)"    "Ca44S34O4(aq)"  "Fe(OH)2(aq)"    "Fe(OH)3-"       "Fe(OH)4--"      "FeCl+"          "FeCl2(aq)"      "FeCl4--"        "FeOH+"          "FeSO4(aq)"      "FeS34O4(aq)"    "OH-"            "HS-"            "HS34-"          "H2PO4-"         "H3PO4(aq)"      "HAlO2(aq)"      "HSO4-"          "HS34O4-"        "HSiO3-"         "KCl(aq)"        "KHSO4(aq)"      "KHS34O4(aq)"    "KOH(aq)"        "KSO4-"          "KS34O4-"        "NaAlO2(aq)"     "NaCl(aq)"       "NaHSiO3(aq)"    "NaOH(aq)"       "NaSO4-"         "NaS34O4-"       "NH4+"           "H2(aq)"         "CaHPO4(aq)"     "Ca44HPO4(aq)"   "CaPO4-"         "Ca44PO4-"       "FeCO3(aq)"      "FeH2PO4+"       "FeHPO4(aq)"     "FePO4-"         "KHPO4-"         "PO4---"         "S--"            "S34--"          "BO2-"           "MgB(OH)4+"     
 ZONE I=           1 , J=           1 , K=           1  F=POINT
   5.00000000E-01   5.00000000E-01   5.00000000E-01  -7.15218376E+00  -1.38310418E+01  -3.58889645E+00  -1.21072265E+01  -1.29199952E+00   3.55462930E-02  -1.62865478E+00  -7.33235368E+00  -1.29999998E+01   4.56139754E-01  -1.92896290E+00  -4.80580392E+00  -5.08234573E+00  -1.98655583E+00  -3.33247464E+00  -3.62895199E-01  -3.99894255E+00  -3.74472744E+00  -3.41996029E+00  -6.66456443E+00  -4.40893533E+00  -8.03613771E+00  -9.20823583E-01  -1.54058768E+01  -1.36037955E+01  -1.22029469E+01  -1.59089206E+01  -1.86007582E+01  -1.11031101E+01  -1.24543652E+01  -2.40214832E+00  -5.02904081E+00  -9.19975820E-01  -2.58417690E+00  -1.01821553E+00  -2.68241661E+00  -6.21119744E+00  -7.87539852E+00  -1.89304291E+00  -3.23896173E+00  -3.55724399E+00  -4.90316281E+00  -1.47136848E+01  -1.74507366E+01  -2.44811111E+01  -7.76243363E+00  -1.03271540E+01  -3.93726368E+00  -1.02286706E+01  -9.12879632E+00  -1.04747151E+01  -7.31930790E+00  -4.36247323E+00  -4.63901504E+00  -7.36478952E+00  -1.29357080E+01  -1.19141743E+01  -8.16627067E+00  -9.51218949E+00  -6.53513793E+00  -3.88249917E+00  -1.20538820E+01  -1.33998008E+01  -9.83439771E+00  -4.05670608E+00  -5.40262490E+00  -1.29369682E+01  -1.43286495E+00  -5.73115966E+00  -9.10924940E+00  -2.47839756E+00  -3.82431638E+00  -8.82996747E+00  -4.77424933E+01  -5.89881768E+00  -7.56301876E+00  -6.83581557E+00  -8.50001665E+00  -9.37300085E+00  -1.99212480E+01  -1.24062522E+01  -1.27333305E+01  -8.82378930E+00  -1.06360985E+01  -1.00436425E+01  -1.03201843E+01  -5.18615858E+00  -4.87739153E+00
