 TITLE = "Total Concentrations" 
VARIABLES = "X"          "Y"              "Z"            "H+"             "Al+++"          "CO2(aq)"        "NH3(aq)"        "Mg++"           "Ca++"           "Ca44++"         "Fe++"           "Fe+++"          "Cl-"            "K+"             "H2S(aq)"        "H2S34(aq)"      "SO4--"          "S34O4--"        "Na+"            "SiO2(aq)"       "O2(aq)"         "B(OH)3(aq)"     "HPO4--"         "NO3-"           "Methane(aq)"    "Formaldehyde"   "C5H7O2NSO4"     "HNO3(aq)"       "Al(OH)2+"       "Al(SO4)2-"      "Al(S34O4)2-"    "AlO2-"          "AlOH++"         "HCO3-"          "CO3--"          "CaCl+"          "Ca44Cl+"        "CaCl2(aq)"      "Ca44Cl2(aq)"    "CaOH+"          "Ca44OH+"        "CaSO4(aq)"      "CaS34O4(aq)"    "Ca44SO4(aq)"    "Ca44S34O4(aq)"  "Fe(OH)2(aq)"    "Fe(OH)3-"       "Fe(OH)4--"      "FeCl+"          "FeCl2(aq)"      "FeCl4--"        "FeOH+"          "FeSO4(aq)"      "FeS34O4(aq)"    "OH-"            "HS-"            "HS34-"          "H2PO4-"         "H3PO4(aq)"      "HAlO2(aq)"      "HSO4-"          "HS34O4-"        "HSiO3-"         "KCl(aq)"        "KHSO4(aq)"      "KHS34O4(aq)"    "KOH(aq)"        "KSO4-"          "KS34O4-"        "NaAlO2(aq)"     "NaCl(aq)"       "NaHSiO3(aq)"    "NaOH(aq)"       "NaSO4-"         "NaS34O4-"       "NH4+"           "H2(aq)"         "CaHPO4(aq)"     "Ca44HPO4(aq)"   "CaPO4-"         "Ca44PO4-"       "FeCO3(aq)"      "FeH2PO4+"       "FeHPO4(aq)"     "FePO4-"         "KHPO4-"         "PO4---"         "S--"            "S34--"          "BO2-"           "MgB(OH)4+"     
 ZONE I=           1 , J=           1 , K=           1  F=POINT
   5.00000000E-01   5.00000000E-01   5.00000000E-01  -6.98957212E+00  -1.31924226E+01  -3.45569205E+00  -1.22697224E+01  -1.29196328E+00   3.54947447E-02  -1.62870628E+00  -7.18717793E+00  -1.29999998E+01   4.56120525E-01  -1.92896659E+00  -4.44055620E+00  -4.96871824E+00  -1.98655521E+00  -3.33247332E+00  -3.62894549E-01  -3.99528828E+00  -3.74472744E+00  -3.41320226E+00  -6.65760158E+00  -4.40893533E+00  -8.06736396E+00  -9.20827977E-01  -1.54058385E+01  -1.34411689E+01  -1.18895179E+01  -1.52702958E+01  -1.79621320E+01  -1.11148765E+01  -1.19783469E+01  -2.43156875E+00  -5.22106749E+00  -9.20051948E-01  -2.58425297E+00  -1.01829332E+00  -2.68249434E+00  -6.37384257E+00  -8.03804359E+00  -1.89306308E+00  -3.23898119E+00  -3.55726411E+00  -4.90318221E+00  -1.48936733E+01  -1.77933499E+01  -2.49863329E+01  -7.61728246E+00  -1.01820045E+01  -3.79220954E+00  -1.02460885E+01  -8.98358919E+00  -1.03295073E+01  -7.48189512E+00  -4.15985108E+00  -4.68801312E+00  -7.19521812E+00  -1.26035118E+01  -1.17633159E+01  -8.00366151E+00  -9.34957961E+00  -6.69410849E+00  -3.88250275E+00  -1.18912590E+01  -1.32371771E+01  -9.99697028E+00  -4.05670786E+00  -5.40262597E+00  -1.29487181E+01  -1.43286596E+00  -5.89011377E+00  -9.27181941E+00  -2.47839678E+00  -3.82431488E+00  -8.82989588E+00  -4.77424358E+01  -5.89187562E+00  -7.55607664E+00  -6.99149833E+00  -8.65569936E+00  -9.41982330E+00  -1.96065080E+01  -1.22540828E+01  -1.27437860E+01  -8.81682884E+00  -1.07917514E+01  -1.00036241E+01  -1.05317861E+01  -5.34202537E+00  -5.03323212E+00
