 TITLE = "Total Concentrations" 
VARIABLES = "X"          "Y"              "Z"            "H+"             "Al+++"          "CO2(aq)"        "NH3(aq)"        "Mg++"           "Ca++"           "Ca44++"         "Fe++"           "Fe+++"          "Cl-"            "K+"             "H2S(aq)"        "H2S34(aq)"      "SO4--"          "S34O4--"        "Na+"            "SiO2(aq)"       "O2(aq)"         "B(OH)3(aq)"     "HPO4--"         "NO3-"           "Methane(aq)"    "Formaldehyde"   "C5H7O2NSO4"     "HNO3(aq)"       "Al(OH)2+"       "Al(SO4)2-"      "Al(S34O4)2-"    "AlO2-"          "AlOH++"         "HCO3-"          "CO3--"          "CaCl+"          "Ca44Cl+"        "CaCl2(aq)"      "Ca44Cl2(aq)"    "CaOH+"          "Ca44OH+"        "CaSO4(aq)"      "CaS34O4(aq)"    "Ca44SO4(aq)"    "Ca44S34O4(aq)"  "Fe(OH)2(aq)"    "Fe(OH)3-"       "Fe(OH)4--"      "FeCl+"          "FeCl2(aq)"      "FeCl4--"        "FeOH+"          "FeSO4(aq)"      "FeS34O4(aq)"    "OH-"            "HS-"            "HS34-"          "H2PO4-"         "H3PO4(aq)"      "HAlO2(aq)"      "HSO4-"          "HS34O4-"        "HSiO3-"         "KCl(aq)"        "KHSO4(aq)"      "KHS34O4(aq)"    "KOH(aq)"        "KSO4-"          "KS34O4-"        "NaAlO2(aq)"     "NaCl(aq)"       "NaHSiO3(aq)"    "NaOH(aq)"       "NaSO4-"         "NaS34O4-"       "NH4+"           "H2(aq)"         "CaHPO4(aq)"     "Ca44HPO4(aq)"   "CaPO4-"         "Ca44PO4-"       "FeCO3(aq)"      "FeH2PO4+"       "FeHPO4(aq)"     "FePO4-"         "KHPO4-"         "PO4---"         "S--"            "S34--"          "BO2-"           "MgB(OH)4+"     
 ZONE I=           1 , J=           1 , K=           1  F=POINT
   5.00000000E-01   5.00000000E-01   5.00000000E-01  -6.96900683E+00  -1.31116786E+01  -3.43982231E+00  -1.22902738E+01  -1.29195932E+00   3.54866947E-02  -1.62871432E+00  -7.16432301E+00  -1.29999998E+01   4.56116733E-01  -1.92896731E+00  -4.39224547E+00  -4.95526495E+00  -1.98655545E+00  -3.33247342E+00  -3.62894404E-01  -3.99483661E+00  -3.74472744E+00  -3.41250807E+00  -6.65715751E+00  -4.40893533E+00  -8.07352027E+00  -9.20828856E-01  -1.54058327E+01  -1.34206013E+01  -1.18498995E+01  -1.51895516E+01  -1.78813876E+01  -1.11163846E+01  -1.19181667E+01  -2.43626628E+00  -5.24632950E+00  -9.20064595E-01  -2.58426561E+00  -1.01830711E+00  -2.68250813E+00  -6.39441320E+00  -8.05861421E+00  -1.89306674E+00  -3.23898471E+00  -3.55726776E+00  -4.90318573E+00  -1.49119401E+01  -1.78321840E+01  -2.50457318E+01  -7.59443214E+00  -1.01591554E+01  -3.76937651E+00  -1.02437961E+01  -8.96072989E+00  -1.03066479E+01  -7.50245674E+00  -4.13210775E+00  -4.69512722E+00  -7.17420922E+00  -1.25619356E+01  -1.17442567E+01  -7.98309692E+00  -9.32901488E+00  -6.71422409E+00  -3.88250435E+00  -1.18706925E+01  -1.32166104E+01  -1.00175299E+01  -4.05670862E+00  -5.40262659E+00  -1.29502237E+01  -1.43286697E+00  -5.91022685E+00  -9.29237840E+00  -2.47839694E+00  -3.82431491E+00  -8.82988859E+00  -4.77424271E+01  -5.89143497E+00  -7.55563599E+00  -7.01162496E+00  -8.67582598E+00  -9.42222611E+00  -1.95626452E+01  -1.22307792E+01  -1.27410497E+01  -8.81638530E+00  -1.08118733E+01  -9.99644486E+00  -1.05594643E+01  -5.36189846E+00  -5.05310276E+00
