 TITLE = "Total Concentrations" 
VARIABLES = "X"          "Y"              "Z"            "H+"             "Al+++"          "CO2(aq)"        "NH3(aq)"        "Mg++"           "Ca++"           "Ca44++"         "Fe++"           "Fe+++"          "Cl-"            "K+"             "H2S(aq)"        "H2S34(aq)"      "SO4--"          "S34O4--"        "Na+"            "SiO2(aq)"       "O2(aq)"         "B(OH)3(aq)"     "HPO4--"         "NO3-"           "Methane(aq)"    "Formaldehyde"   "C5H7O2NSO4"     "HNO3(aq)"       "Al(OH)2+"       "Al(SO4)2-"      "Al(S34O4)2-"    "AlO2-"          "AlOH++"         "HCO3-"          "CO3--"          "CaCl+"          "Ca44Cl+"        "CaCl2(aq)"      "Ca44Cl2(aq)"    "CaOH+"          "Ca44OH+"        "CaSO4(aq)"      "CaS34O4(aq)"    "Ca44SO4(aq)"    "Ca44S34O4(aq)"  "Fe(OH)2(aq)"    "Fe(OH)3-"       "Fe(OH)4--"      "FeCl+"          "FeCl2(aq)"      "FeCl4--"        "FeOH+"          "FeSO4(aq)"      "FeS34O4(aq)"    "OH-"            "HS-"            "HS34-"          "H2PO4-"         "H3PO4(aq)"      "HAlO2(aq)"      "HSO4-"          "HS34O4-"        "HSiO3-"         "KCl(aq)"        "KHSO4(aq)"      "KHS34O4(aq)"    "KOH(aq)"        "KSO4-"          "KS34O4-"        "NaAlO2(aq)"     "NaCl(aq)"       "NaHSiO3(aq)"    "NaOH(aq)"       "NaSO4-"         "NaS34O4-"       "NH4+"           "H2(aq)"         "CaHPO4(aq)"     "Ca44HPO4(aq)"   "CaPO4-"         "Ca44PO4-"       "FeCO3(aq)"      "FeH2PO4+"       "FeHPO4(aq)"     "FePO4-"         "KHPO4-"         "PO4---"         "S--"            "S34--"          "BO2-"           "MgB(OH)4+"     
 ZONE I=           1 , J=           1 , K=           1  F=POINT
   5.00000000E-01   5.00000000E-01   5.00000000E-01  -7.35503899E+00  -1.46243926E+01  -3.76588425E+00  -1.19045477E+01  -1.29206286E+00   3.55956191E-02  -1.62860551E+00  -7.53788511E+00  -1.29999998E+01   4.56157970E-01  -1.92896066E+00  -5.26184551E+00  -5.51345206E+00  -1.98656051E+00  -3.33247976E+00  -3.62896326E-01  -4.00481134E+00  -3.74472744E+00  -3.43255684E+00  -6.68276406E+00  -4.40893533E+00  -8.01690259E+00  -9.20820945E-01  -1.54059115E+01  -1.38066642E+01  -1.25906172E+01  -1.67022847E+01  -1.93941232E+01  -1.10850950E+01  -1.30448705E+01  -2.37626896E+00  -4.80031107E+00  -9.19903439E-01  -2.58410457E+00  -1.01814082E+00  -2.68234196E+00  -6.00830921E+00  -7.67251034E+00  -1.89302609E+00  -3.23894534E+00  -3.55722723E+00  -4.90314648E+00  -1.45135592E+01  -1.70477438E+01  -2.38752658E+01  -7.96794200E+00  -1.05326601E+01  -4.14268182E+00  -1.02313632E+01  -9.33436025E+00  -1.06802795E+01  -7.11647476E+00  -4.61564698E+00  -4.86725352E+00  -7.58584159E+00  -1.33596272E+01  -1.20990264E+01  -8.36912779E+00  -9.71504704E+00  -6.33813956E+00  -3.88249621E+00  -1.22567528E+01  -1.36026720E+01  -9.63157889E+00  -4.05670969E+00  -5.40262894E+00  -1.29189685E+01  -1.43286375E+00  -5.53417671E+00  -8.90643235E+00  -2.47840294E+00  -3.82432219E+00  -8.83010389E+00  -4.77425454E+01  -5.91699581E+00  -7.58119695E+00  -6.65112654E+00  -8.31532767E+00  -9.34982829E+00  -2.03478251E+01  -1.26300111E+01  -1.27542222E+01  -8.84198785E+00  -1.04514392E+01  -1.00939682E+01  -1.03455747E+01  -4.99588796E+00  -4.68717517E+00
