 TITLE = "Total Concentrations" 
VARIABLES = "X"          "Y"              "Z"            "H+"             "Al+++"          "CO2(aq)"        "NH3(aq)"        "Mg++"           "Ca++"           "Ca44++"         "Fe++"           "Fe+++"          "Cl-"            "K+"             "H2S(aq)"        "H2S34(aq)"      "SO4--"          "S34O4--"        "Na+"            "SiO2(aq)"       "O2(aq)"         "B(OH)3(aq)"     "HPO4--"         "NO3-"           "Methane(aq)"    "Formaldehyde"   "C5H7O2NSO4"     "HNO3(aq)"       "Al(OH)2+"       "Al(SO4)2-"      "Al(S34O4)2-"    "AlO2-"          "AlOH++"         "HCO3-"          "CO3--"          "CaCl+"          "Ca44Cl+"        "CaCl2(aq)"      "Ca44Cl2(aq)"    "CaOH+"          "Ca44OH+"        "CaSO4(aq)"      "CaS34O4(aq)"    "Ca44SO4(aq)"    "Ca44S34O4(aq)"  "Fe(OH)2(aq)"    "Fe(OH)3-"       "Fe(OH)4--"      "FeCl+"          "FeCl2(aq)"      "FeCl4--"        "FeOH+"          "FeSO4(aq)"      "FeS34O4(aq)"    "OH-"            "HS-"            "HS34-"          "H2PO4-"         "H3PO4(aq)"      "HAlO2(aq)"      "HSO4-"          "HS34O4-"        "HSiO3-"         "KCl(aq)"        "KHSO4(aq)"      "KHS34O4(aq)"    "KOH(aq)"        "KSO4-"          "KS34O4-"        "NaAlO2(aq)"     "NaCl(aq)"       "NaHSiO3(aq)"    "NaOH(aq)"       "NaSO4-"         "NaS34O4-"       "NH4+"           "H2(aq)"         "CaHPO4(aq)"     "Ca44HPO4(aq)"   "CaPO4-"         "Ca44PO4-"       "FeCO3(aq)"      "FeH2PO4+"       "FeHPO4(aq)"     "FePO4-"         "KHPO4-"         "PO4---"         "S--"            "S34--"          "BO2-"           "MgB(OH)4+"     
 ZONE I=           1 , J=           1 , K=           1  F=POINT
   5.00000000E-01   5.00000000E-01   5.00000000E-01  -5.49690800E+00  -9.01939911E+00  -2.07422209E+00  -1.37602439E+01  -1.25007139E+00   3.18678117E-02  -1.63271475E+00  -6.51851217E+00  -1.29999998E+01   4.56116482E-01  -2.00706530E+00  -1.93641317E+00  -3.30424254E+00  -2.23154646E+00  -3.56053264E+00  -3.61583958E-01  -3.37267645E+00  -3.74472744E+00  -3.39847203E+00  -6.97264514E+00  -4.40893534E+00  -9.10076650E+00  -1.01854137E+00  -1.54041102E+01  -1.19478301E+01  -1.07003306E+01  -1.15870535E+01  -1.42450259E+01  -1.29097662E+01  -9.29750576E+00  -2.54335766E+00  -6.82527937E+00  -9.23922763E-01  -2.58850532E+00  -1.02137564E+00  -2.68595819E+00  -7.86931990E+00  -9.53390245E+00  -2.14029248E+00  -3.46927866E+00  -3.80487503E+00  -5.13386121E+00  -1.72076760E+01  -2.16006114E+01  -3.02861210E+01  -6.94886059E+00  -9.51279416E+00  -3.12557156E+00  -1.10692731E+01  -8.55852590E+00  -9.88751208E+00  -8.97345978E+00  -3.14900093E+00  -4.51683031E+00  -6.01773514E+00  -9.93276992E+00  -1.20649467E+01  -6.75612621E+00  -8.08511239E+00  -7.56475553E+00  -3.95973306E+00  -1.07210299E+01  -1.20500160E+01  -1.15658071E+01  -4.37973762E+00  -5.70872380E+00  -1.47415846E+01  -1.43076687E+00  -6.75873758E+00  -1.07613268E+01  -2.72209713E+00  -4.05108331E+00  -8.82974326E+00  -4.77398434E+01  -6.20915733E+00  -7.87373988E+00  -8.80203892E+00  -1.04666215E+01  -1.03540842E+01  -1.77606790E+01  -1.18990718E+01  -1.38820339E+01  -9.20991091E+00  -1.25996469E+01  -1.04850822E+01  -1.18529116E+01  -6.82055402E+00  -6.47032048E+00
