 TITLE = "Total Concentrations" 
VARIABLES = "X"          "Y"              "Z"            "H+"             "Al+++"          "CO2(aq)"        "NH3(aq)"        "Mg++"           "Ca++"           "Ca44++"         "Fe++"           "Fe+++"          "Cl-"            "K+"             "H2S(aq)"        "H2S34(aq)"      "SO4--"          "S34O4--"        "Na+"            "SiO2(aq)"       "O2(aq)"         "B(OH)3(aq)"     "HPO4--"         "NO3-"           "Methane(aq)"    "Formaldehyde"   "C5H7O2NSO4"     "HNO3(aq)"       "Al(OH)2+"       "Al(SO4)2-"      "Al(S34O4)2-"    "AlO2-"          "AlOH++"         "HCO3-"          "CO3--"          "CaCl+"          "Ca44Cl+"        "CaCl2(aq)"      "Ca44Cl2(aq)"    "CaOH+"          "Ca44OH+"        "CaSO4(aq)"      "CaS34O4(aq)"    "Ca44SO4(aq)"    "Ca44S34O4(aq)"  "Fe(OH)2(aq)"    "Fe(OH)3-"       "Fe(OH)4--"      "FeCl+"          "FeCl2(aq)"      "FeCl4--"        "FeOH+"          "FeSO4(aq)"      "FeS34O4(aq)"    "OH-"            "HS-"            "HS34-"          "H2PO4-"         "H3PO4(aq)"      "HAlO2(aq)"      "HSO4-"          "HS34O4-"        "HSiO3-"         "KCl(aq)"        "KHSO4(aq)"      "KHS34O4(aq)"    "KOH(aq)"        "KSO4-"          "KS34O4-"        "NaAlO2(aq)"     "NaCl(aq)"       "NaHSiO3(aq)"    "NaOH(aq)"       "NaSO4-"         "NaS34O4-"       "NH4+"           "H2(aq)"         "CaHPO4(aq)"     "Ca44HPO4(aq)"   "CaPO4-"         "Ca44PO4-"       "FeCO3(aq)"      "FeH2PO4+"       "FeHPO4(aq)"     "FePO4-"         "KHPO4-"         "PO4---"         "S--"            "S34--"          "BO2-"           "MgB(OH)4+"     
 ZONE I=           1 , J=           1 , K=           1  F=POINT
   5.00000000E-01   5.00000000E-01   5.00000000E-01  -6.92557091E+00  -1.29412499E+01  -3.40712944E+00  -1.23336805E+01  -1.29195126E+00   3.54684555E-02  -1.62873255E+00  -7.11444333E+00  -1.29999998E+01   4.56107664E-01  -1.92896911E+00  -4.29152453E+00  -4.92756003E+00  -1.98655638E+00  -3.33247399E+00  -3.62894046E-01  -3.99386360E+00  -3.74472744E+00  -3.41114235E+00  -6.65653068E+00  -4.40893533E+00  -8.08880856E+00  -9.20831053E-01  -1.54058198E+01  -1.33771604E+01  -1.17663315E+01  -1.50191233E+01  -1.77109585E+01  -1.11196790E+01  -1.17911703E+01  -2.44701377E+00  -5.30051110E+00  -9.20093704E-01  -2.58429471E+00  -1.01833937E+00  -2.68254038E+00  -6.43786127E+00  -8.10206227E+00  -1.89307554E+00  -3.23899316E+00  -3.55727655E+00  -4.90319416E+00  -1.49489124E+01  -1.79125966E+01  -2.51695793E+01  -7.54456333E+00  -1.01092897E+01  -3.71954815E+00  -1.02373463E+01  -8.91084076E+00  -1.02567584E+01  -7.54588443E+00  -4.07482742E+00  -4.71086292E+00  -7.13014751E+00  -1.24744335E+01  -1.17041108E+01  -7.93966296E+00  -9.28558058E+00  -6.75669144E+00  -3.88250870E+00  -1.18272544E+01  -1.31731720E+01  -1.00609532E+01  -4.05671091E+00  -5.40262853E+00  -1.29535125E+01  -1.43286976E+00  -5.95268852E+00  -9.33580016E+00  -2.47839767E+00  -3.82431528E+00  -8.82987428E+00  -4.77424077E+01  -5.89081601E+00  -7.55501701E+00  -7.05444636E+00  -8.71864736E+00  -9.42651843E+00  -1.94687062E+01  -1.21802623E+01  -1.27339731E+01  -8.81575983E+00  -1.08546837E+01  -9.98259778E+00  -1.06186333E+01  -5.40397310E+00  -5.09517272E+00
