 TITLE = "Total Concentrations" 
VARIABLES = "X"          "Y"              "Z"            "H+"             "Al+++"          "CO2(aq)"        "NH3(aq)"        "Mg++"           "Ca++"           "Ca44++"         "Fe++"           "Fe+++"          "Cl-"            "K+"             "H2S(aq)"        "H2S34(aq)"      "SO4--"          "S34O4--"        "Na+"            "SiO2(aq)"       "O2(aq)"         "B(OH)3(aq)"     "HPO4--"         "NO3-"           "Methane(aq)"    "Formaldehyde"   "C5H7O2NSO4"     "HNO3(aq)"       "Al(OH)2+"       "Al(SO4)2-"      "Al(S34O4)2-"    "AlO2-"          "AlOH++"         "HCO3-"          "CO3--"          "CaCl+"          "Ca44Cl+"        "CaCl2(aq)"      "Ca44Cl2(aq)"    "CaOH+"          "Ca44OH+"        "CaSO4(aq)"      "CaS34O4(aq)"    "Ca44SO4(aq)"    "Ca44S34O4(aq)"  "Fe(OH)2(aq)"    "Fe(OH)3-"       "Fe(OH)4--"      "FeCl+"          "FeCl2(aq)"      "FeCl4--"        "FeOH+"          "FeSO4(aq)"      "FeS34O4(aq)"    "OH-"            "HS-"            "HS34-"          "H2PO4-"         "H3PO4(aq)"      "HAlO2(aq)"      "HSO4-"          "HS34O4-"        "HSiO3-"         "KCl(aq)"        "KHSO4(aq)"      "KHS34O4(aq)"    "KOH(aq)"        "KSO4-"          "KS34O4-"        "NaAlO2(aq)"     "NaCl(aq)"       "NaHSiO3(aq)"    "NaOH(aq)"       "NaSO4-"         "NaS34O4-"       "NH4+"           "H2(aq)"         "CaHPO4(aq)"     "Ca44HPO4(aq)"   "CaPO4-"         "Ca44PO4-"       "FeCO3(aq)"      "FeH2PO4+"       "FeHPO4(aq)"     "FePO4-"         "KHPO4-"         "PO4---"         "S--"            "S34--"          "BO2-"           "MgB(OH)4+"     
 ZONE I=           1 , J=           1 , K=           1  F=POINT
   5.00000000E-01   5.00000000E-01   5.00000000E-01  -7.49837897E+00  -1.51804365E+01  -3.89668272E+00  -1.17613719E+01  -1.29212456E+00   3.56219972E-02  -1.62857917E+00  -7.65758665E+00  -1.29999998E+01   4.56164683E-01  -1.92895987E+00  -5.58835244E+00  -5.83781503E+00  -1.98656413E+00  -3.33248352E+00  -3.62897162E-01  -4.01053643E+00  -3.74472744E+00  -3.44537365E+00  -6.70321619E+00  -4.40893533E+00  -8.01031476E+00  -9.20820065E-01  -1.54059301E+01  -1.39500114E+01  -1.28599972E+01  -1.72583380E+01  -1.99501768E+01  -1.10678084E+01  -1.34575796E+01  -2.36372107E+00  -4.64442581E+00  -9.19867761E-01  -2.58406893E+00  -1.01810692E+00  -2.68230809E+00  -5.86495157E+00  -7.52915274E+00  -1.89301821E+00  -3.23893760E+00  -3.55721937E+00  -4.90313876E+00  -1.43466093E+01  -1.67374475E+01  -2.34216311E+01  -8.08763425E+00  -1.06523541E+01  -4.26233491E+00  -1.02077334E+01  -9.45408029E+00  -1.07999997E+01  -6.97314658E+00  -4.79880719E+00  -5.04826978E+00  -7.74963220E+00  -1.36667642E+01  -1.22250862E+01  -8.51246990E+00  -9.85838929E+00  -6.20051829E+00  -3.88249804E+00  -1.24001026E+01  -1.37460220E+01  -9.48825877E+00  -4.05671314E+00  -5.40263253E+00  -1.29016904E+01  -1.43286637E+00  -5.39656391E+00  -8.76311301E+00  -2.47840716E+00  -3.82432656E+00  -8.83024680E+00  -4.77425732E+01  -5.93743643E+00  -7.60163759E+00  -6.52822080E+00  -8.19242196E+00  -9.31365833E+00  -2.06313138E+01  -1.27701796E+01  -1.27510444E+01  -8.86243981E+00  -1.03285493E+01  -1.01337923E+01  -1.03832548E+01  -4.86535842E+00  -4.55670248E+00
