 TITLE = "Total Concentrations" 
VARIABLES = "X"          "Y"              "Z"            "H+"             "Al+++"          "CO2(aq)"        "NH3(aq)"        "Mg++"           "Ca++"           "Ca44++"         "Fe++"           "Fe+++"          "Cl-"            "K+"             "H2S(aq)"        "H2S34(aq)"      "SO4--"          "S34O4--"        "Na+"            "SiO2(aq)"       "O2(aq)"         "B(OH)3(aq)"     "HPO4--"         "NO3-"           "Methane(aq)"    "Formaldehyde"   "C5H7O2NSO4"     "HNO3(aq)"       "Al(OH)2+"       "Al(SO4)2-"      "Al(S34O4)2-"    "AlO2-"          "AlOH++"         "HCO3-"          "CO3--"          "CaCl+"          "Ca44Cl+"        "CaCl2(aq)"      "Ca44Cl2(aq)"    "CaOH+"          "Ca44OH+"        "CaSO4(aq)"      "CaS34O4(aq)"    "Ca44SO4(aq)"    "Ca44S34O4(aq)"  "Fe(OH)2(aq)"    "Fe(OH)3-"       "Fe(OH)4--"      "FeCl+"          "FeCl2(aq)"      "FeCl4--"        "FeOH+"          "FeSO4(aq)"      "FeS34O4(aq)"    "OH-"            "HS-"            "HS34-"          "H2PO4-"         "H3PO4(aq)"      "HAlO2(aq)"      "HSO4-"          "HS34O4-"        "HSiO3-"         "KCl(aq)"        "KHSO4(aq)"      "KHS34O4(aq)"    "KOH(aq)"        "KSO4-"          "KS34O4-"        "NaAlO2(aq)"     "NaCl(aq)"       "NaHSiO3(aq)"    "NaOH(aq)"       "NaSO4-"         "NaS34O4-"       "NH4+"           "H2(aq)"         "CaHPO4(aq)"     "Ca44HPO4(aq)"   "CaPO4-"         "Ca44PO4-"       "FeCO3(aq)"      "FeH2PO4+"       "FeHPO4(aq)"     "FePO4-"         "KHPO4-"         "PO4---"         "S--"            "S34--"          "BO2-"           "MgB(OH)4+"     
 ZONE I=           1 , J=           1 , K=           1  F=POINT
   5.00000000E-01   5.00000000E-01   5.00000000E-01  -6.95950501E+00  -1.30743822E+01  -3.43257407E+00  -1.22997692E+01  -1.29195752E+00   3.54828476E-02  -1.62871817E+00  -7.15355802E+00  -1.29999998E+01   4.56114869E-01  -1.92896767E+00  -4.37000721E+00  -4.94912161E+00  -1.98655560E+00  -3.33247350E+00  -3.62894332E-01  -3.99462638E+00  -3.74472744E+00  -3.41219791E+00  -6.65698441E+00  -4.40893533E+00  -8.07658920E+00  -9.20829296E-01  -1.54058300E+01  -1.34110984E+01  -1.18316044E+01  -1.51522552E+01  -1.78440910E+01  -1.11170911E+01  -1.18903713E+01  -2.43852080E+00  -5.25808546E+00  -9.20070688E-01  -2.58427170E+00  -1.01831381E+00  -2.68251483E+00  -6.40391757E+00  -8.06811858E+00  -1.89306854E+00  -3.23898644E+00  -3.55726955E+00  -4.90318745E+00  -1.49201745E+01  -1.78499211E+01  -2.50729706E+01  -7.58366939E+00  -1.01483932E+01  -3.75862216E+00  -1.02425317E+01  -8.94996284E+00  -1.02958807E+01  -7.51195681E+00  -4.11937230E+00  -4.69848670E+00  -7.16453453E+00  -1.25427581E+01  -1.17354605E+01  -7.97359547E+00  -9.31951336E+00  -6.72351662E+00  -3.88250519E+00  -1.18611901E+01  -1.32071080E+01  -1.00270290E+01  -4.05670904E+00  -5.40262694E+00  -1.29509290E+01  -1.43286750E+00  -5.91951818E+00  -9.30187721E+00  -2.47839705E+00  -3.82431495E+00  -8.82988533E+00  -4.77424230E+01  -5.89126352E+00  -7.55546453E+00  -7.02095627E+00  -8.68515728E+00  -9.42321504E+00  -1.95422061E+01  -1.22198389E+01  -1.27396121E+01  -8.81621247E+00  -1.08212023E+01  -9.99321066E+00  -1.05723251E+01  -5.37109106E+00  -5.06229428E+00
