 TITLE = "Total Concentrations" 
VARIABLES = "X"          "Y"              "Z"            "H+"             "Al+++"          "CO2(aq)"        "NH3(aq)"        "Mg++"           "Ca++"           "Ca44++"         "Fe++"           "Fe+++"          "Cl-"            "K+"             "H2S(aq)"        "H2S34(aq)"      "SO4--"          "S34O4--"        "Na+"            "SiO2(aq)"       "O2(aq)"         "B(OH)3(aq)"     "HPO4--"         "NO3-"           "Methane(aq)"    "Formaldehyde"   "C5H7O2NSO4"     "HNO3(aq)"       "Al(OH)2+"       "Al(SO4)2-"      "Al(S34O4)2-"    "AlO2-"          "AlOH++"         "HCO3-"          "CO3--"          "CaCl+"          "Ca44Cl+"        "CaCl2(aq)"      "Ca44Cl2(aq)"    "CaOH+"          "Ca44OH+"        "CaSO4(aq)"      "CaS34O4(aq)"    "Ca44SO4(aq)"    "Ca44S34O4(aq)"  "Fe(OH)2(aq)"    "Fe(OH)3-"       "Fe(OH)4--"      "FeCl+"          "FeCl2(aq)"      "FeCl4--"        "FeOH+"          "FeSO4(aq)"      "FeS34O4(aq)"    "OH-"            "HS-"            "HS34-"          "H2PO4-"         "H3PO4(aq)"      "HAlO2(aq)"      "HSO4-"          "HS34O4-"        "HSiO3-"         "KCl(aq)"        "KHSO4(aq)"      "KHS34O4(aq)"    "KOH(aq)"        "KSO4-"          "KS34O4-"        "NaAlO2(aq)"     "NaCl(aq)"       "NaHSiO3(aq)"    "NaOH(aq)"       "NaSO4-"         "NaS34O4-"       "NH4+"           "H2(aq)"         "CaHPO4(aq)"     "Ca44HPO4(aq)"   "CaPO4-"         "Ca44PO4-"       "FeCO3(aq)"      "FeH2PO4+"       "FeHPO4(aq)"     "FePO4-"         "KHPO4-"         "PO4---"         "S--"            "S34--"          "BO2-"           "MgB(OH)4+"     
 ZONE I=           1 , J=           1 , K=           1  F=POINT
   5.00000000E-01   5.00000000E-01   5.00000000E-01  -7.03907777E+00  -1.33868696E+01  -3.49487586E+00  -1.22202508E+01  -1.29197332E+00   3.55126003E-02  -1.62868844E+00  -7.23875222E+00  -1.29999998E+01   4.56128293E-01  -1.92896513E+00  -4.55641707E+00  -5.00197049E+00  -1.98655503E+00  -3.33247342E+00  -3.62894833E-01  -3.99636887E+00  -3.74472744E+00  -3.41500929E+00  -6.65906409E+00  -4.40893533E+00  -8.05497023E+00  -9.20826220E-01  -1.54058515E+01  -1.34906796E+01  -1.19849647E+01  -1.54647438E+01  -1.81565806E+01  -1.11113215E+01  -1.21232919E+01  -2.42124244E+00  -5.16123735E+00  -9.20024512E-01  -2.58422555E+00  -1.01826407E+00  -2.68246511E+00  -6.32432518E+00  -7.98852622E+00  -1.89305546E+00  -3.23897385E+00  -3.55725650E+00  -4.90317489E+00  -1.48462563E+01  -1.76964228E+01  -2.48399012E+01  -7.66884717E+00  -1.02335674E+01  -3.84373762E+00  -1.02481632E+01  -9.03517372E+00  -1.03810921E+01  -7.43239774E+00  -4.22620158E+00  -4.67175501E+00  -7.24618523E+00  -1.27039890E+01  -1.18092710E+01  -8.05316592E+00  -9.39908431E+00  -6.64567895E+00  -3.88250007E+00  -1.19407679E+01  -1.32866863E+01  -9.94747766E+00  -4.05670665E+00  -5.40262505E+00  -1.29451688E+01  -1.43286443E+00  -5.84168987E+00  -9.22232793E+00  -2.47839671E+00  -3.82431510E+00  -8.82991491E+00  -4.77424553E+01  -5.89333069E+00  -7.55753173E+00  -6.94344328E+00  -8.60764433E+00  -9.41157710E+00  -1.97090470E+01  -1.23071300E+01  -1.27473231E+01  -8.81829033E+00  -1.07437069E+01  -1.00204716E+01  -1.04660250E+01  -5.29432228E+00  -4.98553567E+00
