 TITLE = "Total Concentrations" 
VARIABLES = "X"          "Y"              "Z"            "H+"             "Al+++"          "CO2(aq)"        "NH3(aq)"        "Mg++"           "Ca++"           "Ca44++"         "Fe++"           "Fe+++"          "Cl-"            "K+"             "H2S(aq)"        "H2S34(aq)"      "SO4--"          "S34O4--"        "Na+"            "SiO2(aq)"       "O2(aq)"         "B(OH)3(aq)"     "HPO4--"         "NO3-"           "Methane(aq)"    "Formaldehyde"   "C5H7O2NSO4"     "HNO3(aq)"       "Al(OH)2+"       "Al(SO4)2-"      "Al(S34O4)2-"    "AlO2-"          "AlOH++"         "HCO3-"          "CO3--"          "CaCl+"          "Ca44Cl+"        "CaCl2(aq)"      "Ca44Cl2(aq)"    "CaOH+"          "Ca44OH+"        "CaSO4(aq)"      "CaS34O4(aq)"    "Ca44SO4(aq)"    "Ca44S34O4(aq)"  "Fe(OH)2(aq)"    "Fe(OH)3-"       "Fe(OH)4--"      "FeCl+"          "FeCl2(aq)"      "FeCl4--"        "FeOH+"          "FeSO4(aq)"      "FeS34O4(aq)"    "OH-"            "HS-"            "HS34-"          "H2PO4-"         "H3PO4(aq)"      "HAlO2(aq)"      "HSO4-"          "HS34O4-"        "HSiO3-"         "KCl(aq)"        "KHSO4(aq)"      "KHS34O4(aq)"    "KOH(aq)"        "KSO4-"          "KS34O4-"        "NaAlO2(aq)"     "NaCl(aq)"       "NaHSiO3(aq)"    "NaOH(aq)"       "NaSO4-"         "NaS34O4-"       "NH4+"           "H2(aq)"         "CaHPO4(aq)"     "Ca44HPO4(aq)"   "CaPO4-"         "Ca44PO4-"       "FeCO3(aq)"      "FeH2PO4+"       "FeHPO4(aq)"     "FePO4-"         "KHPO4-"         "PO4---"         "S--"            "S34--"          "BO2-"           "MgB(OH)4+"     
 ZONE I=           1 , J=           1 , K=           1  F=POINT
   5.00000000E-01   5.00000000E-01   5.00000000E-01  -6.91792508E+00  -1.29112700E+01  -3.40149214E+00  -1.23413212E+01  -1.29194988E+00   3.54650746E-02  -1.62873592E+00  -7.10555554E+00  -1.29999998E+01   4.56105929E-01  -1.92896947E+00  -4.27412737E+00  -4.92278416E+00  -1.98655661E+00  -3.33247416E+00  -3.62893976E-01  -3.99368846E+00  -3.74472744E+00  -3.41091535E+00  -6.65646379E+00  -4.40893533E+00  -8.09185027E+00  -9.20831493E-01  -1.54058174E+01  -1.33695136E+01  -1.17516412E+01  -1.49891436E+01  -1.76809787E+01  -1.11202786E+01  -1.17688355E+01  -2.44902311E+00  -5.31016593E+00  -9.20099152E-01  -2.58430015E+00  -1.01834547E+00  -2.68254647E+00  -6.44550936E+00  -8.10971036E+00  -1.89307725E+00  -3.23899480E+00  -3.55727825E+00  -4.90319580E+00  -1.49553126E+01  -1.79266434E+01  -2.51912718E+01  -7.53567761E+00  -1.01004046E+01  -3.71067008E+00  -1.02361032E+01  -8.90195131E+00  -1.02478689E+01  -7.55352874E+00  -4.06507695E+00  -4.71373374E+00  -7.12243498E+00  -1.24590744E+01  -1.16970638E+01  -7.93201756E+00  -9.27793511E+00  -6.76416294E+00  -3.88250960E+00  -1.18196083E+01  -1.31655258E+01  -1.00685967E+01  -4.05671143E+00  -5.40262897E+00  -1.29541110E+01  -1.43287033E+00  -5.96015897E+00  -9.34344337E+00  -2.47839786E+00  -3.82431541E+00  -8.82987190E+00  -4.77424042E+01  -5.89075059E+00  -7.55495159E+00  -7.06202759E+00  -8.72622859E+00  -9.42728372E+00  -1.94521064E+01  -1.21713057E+01  -1.27326632E+01  -8.81569321E+00  -1.08622629E+01  -9.98049264E+00  -1.06291494E+01  -5.41139274E+00  -5.10259161E+00
