 TITLE = "Total Concentrations" 
VARIABLES = "X"          "Y"              "Z"            "H+"             "Al+++"          "CO2(aq)"        "NH3(aq)"        "Mg++"           "Ca++"           "Ca44++"         "Fe++"           "Fe+++"          "Cl-"            "K+"             "H2S(aq)"        "H2S34(aq)"      "SO4--"          "S34O4--"        "Na+"            "SiO2(aq)"       "O2(aq)"         "B(OH)3(aq)"     "HPO4--"         "NO3-"           "Methane(aq)"    "Formaldehyde"   "C5H7O2NSO4"     "HNO3(aq)"       "Al(OH)2+"       "Al(SO4)2-"      "Al(S34O4)2-"    "AlO2-"          "AlOH++"         "HCO3-"          "CO3--"          "CaCl+"          "Ca44Cl+"        "CaCl2(aq)"      "Ca44Cl2(aq)"    "CaOH+"          "Ca44OH+"        "CaSO4(aq)"      "CaS34O4(aq)"    "Ca44SO4(aq)"    "Ca44S34O4(aq)"  "Fe(OH)2(aq)"    "Fe(OH)3-"       "Fe(OH)4--"      "FeCl+"          "FeCl2(aq)"      "FeCl4--"        "FeOH+"          "FeSO4(aq)"      "FeS34O4(aq)"    "OH-"            "HS-"            "HS34-"          "H2PO4-"         "H3PO4(aq)"      "HAlO2(aq)"      "HSO4-"          "HS34O4-"        "HSiO3-"         "KCl(aq)"        "KHSO4(aq)"      "KHS34O4(aq)"    "KOH(aq)"        "KSO4-"          "KS34O4-"        "NaAlO2(aq)"     "NaCl(aq)"       "NaHSiO3(aq)"    "NaOH(aq)"       "NaSO4-"         "NaS34O4-"       "NH4+"           "H2(aq)"         "CaHPO4(aq)"     "Ca44HPO4(aq)"   "CaPO4-"         "Ca44PO4-"       "FeCO3(aq)"      "FeH2PO4+"       "FeHPO4(aq)"     "FePO4-"         "KHPO4-"         "PO4---"         "S--"            "S34--"          "BO2-"           "MgB(OH)4+"     
 ZONE I=           1 , J=           1 , K=           1  F=POINT
   5.00000000E-01   5.00000000E-01   5.00000000E-01  -7.10667965E+00  -1.36524081E+01  -3.55040218E+00  -1.21526969E+01  -1.29198835E+00   3.55337950E-02  -1.62866727E+00  -7.29897674E+00  -1.29999998E+01   4.56136050E-01  -1.92896366E+00  -4.70901428E+00  -5.04929588E+00  -1.98655534E+00  -3.33247402E+00  -3.62895086E-01  -3.99787541E+00  -3.74472744E+00  -3.41781928E+00  -6.66198098E+00  -4.40893533E+00  -8.04245149E+00  -9.20824462E-01  -1.54058673E+01  -1.35582877E+01  -1.21153132E+01  -1.57302848E+01  -1.84221221E+01  -1.11064777E+01  -1.23212329E+01  -2.40916141E+00  -5.08155667E+00  -9.19993345E-01  -2.58419441E+00  -1.01823242E+00  -2.68243348E+00  -6.25670958E+00  -7.92091064E+00  -1.89304732E+00  -3.23896600E+00  -3.55724839E+00  -4.90316706E+00  -1.47713015E+01  -1.75538606E+01  -2.46297385E+01  -7.72906171E+00  -1.02937815E+01  -3.90391260E+00  -1.02407933E+01  -9.09541129E+00  -1.04413300E+01  -7.36480597E+00  -4.31119114E+00  -4.65147274E+00  -7.31670273E+00  -1.28421138E+01  -1.18720346E+01  -8.12076684E+00  -9.46668552E+00  -6.57957815E+00  -3.88249885E+00  -1.20083746E+01  -1.33542933E+01  -9.87989200E+00  -4.05670603E+00  -5.40262470E+00  -1.29403318E+01  -1.43286420E+00  -5.77559586E+00  -9.15474327E+00  -2.47839708E+00  -3.82431576E+00  -8.82994467E+00  -4.77424791E+01  -5.89623913E+00  -7.56044019E+00  -6.87874438E+00  -8.54294544E+00  -9.39213272E+00  -1.98397860E+01  -1.23702842E+01  -1.27428699E+01  -8.82120628E+00  -1.06790202E+01  -1.00378626E+01  -1.03781442E+01  -5.22952493E+00  -4.92074920E+00
