 TITLE = "Total Concentrations" 
VARIABLES = "X"          "Y"              "Z"            "H+"             "Al+++"          "CO2(aq)"        "NH3(aq)"        "Mg++"           "Ca++"           "Ca44++"         "Fe++"           "Fe+++"          "Cl-"            "K+"             "H2S(aq)"        "H2S34(aq)"      "SO4--"          "S34O4--"        "Na+"            "SiO2(aq)"       "O2(aq)"         "B(OH)3(aq)"     "HPO4--"         "NO3-"           "Methane(aq)"    "Formaldehyde"   "C5H7O2NSO4"     "HNO3(aq)"       "Al(OH)2+"       "Al(SO4)2-"      "Al(S34O4)2-"    "AlO2-"          "AlOH++"         "HCO3-"          "CO3--"          "CaCl+"          "Ca44Cl+"        "CaCl2(aq)"      "Ca44Cl2(aq)"    "CaOH+"          "Ca44OH+"        "CaSO4(aq)"      "CaS34O4(aq)"    "Ca44SO4(aq)"    "Ca44S34O4(aq)"  "Fe(OH)2(aq)"    "Fe(OH)3-"       "Fe(OH)4--"      "FeCl+"          "FeCl2(aq)"      "FeCl4--"        "FeOH+"          "FeSO4(aq)"      "FeS34O4(aq)"    "OH-"            "HS-"            "HS34-"          "H2PO4-"         "H3PO4(aq)"      "HAlO2(aq)"      "HSO4-"          "HS34O4-"        "HSiO3-"         "KCl(aq)"        "KHSO4(aq)"      "KHS34O4(aq)"    "KOH(aq)"        "KSO4-"          "KS34O4-"        "NaAlO2(aq)"     "NaCl(aq)"       "NaHSiO3(aq)"    "NaOH(aq)"       "NaSO4-"         "NaS34O4-"       "NH4+"           "H2(aq)"         "CaHPO4(aq)"     "Ca44HPO4(aq)"   "CaPO4-"         "Ca44PO4-"       "FeCO3(aq)"      "FeH2PO4+"       "FeHPO4(aq)"     "FePO4-"         "KHPO4-"         "PO4---"         "S--"            "S34--"          "BO2-"           "MgB(OH)4+"     
 ZONE I=           1 , J=           1 , K=           1  F=POINT
   5.00000000E-01   5.00000000E-01   5.00000000E-01  -7.02540882E+00  -1.33331744E+01  -3.48392314E+00  -1.22339103E+01  -1.29197047E+00   3.55078800E-02  -1.62869316E+00  -7.22507826E+00  -1.29999998E+01   4.56126337E-01  -1.92896550E+00  -4.52462306E+00  -4.99266826E+00  -1.98655503E+00  -3.33247335E+00  -3.62894764E-01  -3.99607025E+00  -3.74472744E+00  -3.41449037E+00  -6.65860423E+00  -4.40893533E+00  -8.05807953E+00  -9.20826659E-01  -1.54058480E+01  -1.34770093E+01  -1.19586045E+01  -1.54110483E+01  -1.81028849E+01  -1.11122966E+01  -1.20832647E+01  -2.42395987E+00  -5.17762325E+00  -9.20031672E-01  -2.58423271E+00  -1.01827159E+00  -2.68247263E+00  -6.33799722E+00  -8.00219826E+00  -1.89305741E+00  -3.23897573E+00  -3.55725845E+00  -4.90317677E+00  -1.48599149E+01  -1.77237515E+01  -2.48808986E+01  -7.65517565E+00  -1.02198963E+01  -3.83007551E+00  -1.02481566E+01  -9.02149698E+00  -1.03674153E+01  -7.44606449E+00  -4.20807778E+00  -4.67612299E+00  -7.23205670E+00  -1.26761903E+01  -1.17965760E+01  -8.03949725E+00  -9.38541557E+00  -6.65905049E+00  -3.88250065E+00  -1.19270980E+01  -1.32730163E+01  -9.96114312E+00  -4.05670691E+00  -5.40262523E+00  -1.29461424E+01  -1.43286473E+00  -5.85505991E+00  -9.23599311E+00  -2.47839669E+00  -3.82431501E+00  -8.82990944E+00  -4.77424501E+01  -5.89287277E+00  -7.55707381E+00  -6.95665552E+00  -8.62085656E+00  -9.41428646E+00  -1.96812451E+01  -1.22929934E+01  -1.27468566E+01  -8.81783072E+00  -1.07569164E+01  -1.00160161E+01  -1.04840613E+01  -5.30747351E+00  -4.99868496E+00
