 TITLE = "Total Concentrations" 
VARIABLES = "X"          "Y"              "Z"            "H+"             "Al+++"          "CO2(aq)"        "NH3(aq)"        "Mg++"           "Ca++"           "Ca44++"         "Fe++"           "Fe+++"          "Cl-"            "K+"             "H2S(aq)"        "H2S34(aq)"      "SO4--"          "S34O4--"        "Na+"            "SiO2(aq)"       "O2(aq)"         "B(OH)3(aq)"     "HPO4--"         "NO3-"           "Methane(aq)"    "Formaldehyde"   "C5H7O2NSO4"     "HNO3(aq)"       "Al(OH)2+"       "Al(SO4)2-"      "Al(S34O4)2-"    "AlO2-"          "AlOH++"         "HCO3-"          "CO3--"          "CaCl+"          "Ca44Cl+"        "CaCl2(aq)"      "Ca44Cl2(aq)"    "CaOH+"          "Ca44OH+"        "CaSO4(aq)"      "CaS34O4(aq)"    "Ca44SO4(aq)"    "Ca44S34O4(aq)"  "Fe(OH)2(aq)"    "Fe(OH)3-"       "Fe(OH)4--"      "FeCl+"          "FeCl2(aq)"      "FeCl4--"        "FeOH+"          "FeSO4(aq)"      "FeS34O4(aq)"    "OH-"            "HS-"            "HS34-"          "H2PO4-"         "H3PO4(aq)"      "HAlO2(aq)"      "HSO4-"          "HS34O4-"        "HSiO3-"         "KCl(aq)"        "KHSO4(aq)"      "KHS34O4(aq)"    "KOH(aq)"        "KSO4-"          "KS34O4-"        "NaAlO2(aq)"     "NaCl(aq)"       "NaHSiO3(aq)"    "NaOH(aq)"       "NaSO4-"         "NaS34O4-"       "NH4+"           "H2(aq)"         "CaHPO4(aq)"     "Ca44HPO4(aq)"   "CaPO4-"         "Ca44PO4-"       "FeCO3(aq)"      "FeH2PO4+"       "FeHPO4(aq)"     "FePO4-"         "KHPO4-"         "PO4---"         "S--"            "S34--"          "BO2-"           "MgB(OH)4+"     
 ZONE I=           1 , J=           1 , K=           1  F=POINT
   5.00000000E-01   5.00000000E-01   5.00000000E-01  -7.26697845E+00  -1.42807059E+01  -3.68769694E+00  -1.19925271E+01  -1.29203237E+00   3.55762467E-02  -1.62862486E+00  -7.45043104E+00  -1.29999998E+01   4.56151376E-01  -1.92896142E+00  -5.06080144E+00  -5.31386759E+00  -1.98655777E+00  -3.33247688E+00  -3.62895787E-01  -4.00200984E+00  -3.74472744E+00  -3.42640772E+00  -6.67344879E+00  -4.40893533E+00  -8.02337597E+00  -9.20821825E-01  -1.54058994E+01  -1.37185989E+01  -1.24230411E+01  -1.63585911E+01  -1.90504293E+01  -1.10936312E+01  -1.27892409E+01  -2.38614637E+00  -4.89824732E+00  -9.19931101E-01  -2.58413221E+00  -1.01816951E+00  -2.68237062E+00  -6.09638340E+00  -7.76058451E+00  -1.89303298E+00  -3.23895209E+00  -3.55723409E+00  -4.90315320E+00  -1.46022075E+01  -1.72244568E+01  -2.41400384E+01  -7.88049623E+00  -1.04452153E+01  -4.05526829E+00  -1.02319639E+01  -9.24689370E+00  -1.05928128E+01  -7.20452756E+00  -4.50266786E+00  -4.75573401E+00  -7.48846675E+00  -1.31741877E+01  -1.20194978E+01  -8.28106549E+00  -9.62698460E+00  -6.42340277E+00  -3.88249743E+00  -1.21686857E+01  -1.35146048E+01  -9.71962664E+00  -4.05670729E+00  -5.40262640E+00  -1.29274991E+01  -1.43286424E+00  -5.61943438E+00  -8.99447937E+00  -2.47839981E+00  -3.82431892E+00  -8.83003680E+00  -4.77425271E+01  -5.90769017E+00  -7.57189128E+00  -6.72988561E+00  -8.39408672E+00  -9.36030145E+00  -2.01629984E+01  -1.25332320E+01  -1.27455079E+01  -8.83267293E+00  -1.05301858E+01  -1.00690471E+01  -1.03221133E+01  -5.07780357E+00  -4.76906347E+00
