 TITLE = "Total Concentrations" 
VARIABLES = "X"          "Y"              "Z"            "H+"             "Al+++"          "CO2(aq)"        "NH3(aq)"        "Mg++"           "Ca++"           "Ca44++"         "Fe++"           "Fe+++"          "Cl-"            "K+"             "H2S(aq)"        "H2S34(aq)"      "SO4--"          "S34O4--"        "Na+"            "SiO2(aq)"       "O2(aq)"         "B(OH)3(aq)"     "HPO4--"         "NO3-"           "Methane(aq)"    "Formaldehyde"   "C5H7O2NSO4"     "HNO3(aq)"       "Al(OH)2+"       "Al(SO4)2-"      "Al(S34O4)2-"    "AlO2-"          "AlOH++"         "HCO3-"          "CO3--"          "CaCl+"          "Ca44Cl+"        "CaCl2(aq)"      "Ca44Cl2(aq)"    "CaOH+"          "Ca44OH+"        "CaSO4(aq)"      "CaS34O4(aq)"    "Ca44SO4(aq)"    "Ca44S34O4(aq)"  "Fe(OH)2(aq)"    "Fe(OH)3-"       "Fe(OH)4--"      "FeCl+"          "FeCl2(aq)"      "FeCl4--"        "FeOH+"          "FeSO4(aq)"      "FeS34O4(aq)"    "OH-"            "HS-"            "HS34-"          "H2PO4-"         "H3PO4(aq)"      "HAlO2(aq)"      "HSO4-"          "HS34O4-"        "HSiO3-"         "KCl(aq)"        "KHSO4(aq)"      "KHS34O4(aq)"    "KOH(aq)"        "KSO4-"          "KS34O4-"        "NaAlO2(aq)"     "NaCl(aq)"       "NaHSiO3(aq)"    "NaOH(aq)"       "NaSO4-"         "NaS34O4-"       "NH4+"           "H2(aq)"         "CaHPO4(aq)"     "Ca44HPO4(aq)"   "CaPO4-"         "Ca44PO4-"       "FeCO3(aq)"      "FeH2PO4+"       "FeHPO4(aq)"     "FePO4-"         "KHPO4-"         "PO4---"         "S--"            "S34--"          "BO2-"           "MgB(OH)4+"     
 ZONE I=           1 , J=           1 , K=           1  F=POINT
   5.00000000E-01   5.00000000E-01   5.00000000E-01  -7.12812298E+00  -1.37366039E+01  -3.56844073E+00  -1.21312694E+01  -1.29199350E+00   3.55398447E-02  -1.62866123E+00  -7.31540981E+00  -1.29999998E+01   4.56137928E-01  -1.92896328E+00  -4.75529326E+00  -5.06475372E+00  -1.98655552E+00  -3.33247427E+00  -3.62895142E-01  -3.99837129E+00  -3.74472744E+00  -3.41880162E+00  -6.66313479E+00  -4.40893533E+00  -8.03929948E+00  -9.20824023E-01  -1.54058720E+01  -1.35797328E+01  -1.21566264E+01  -1.58144815E+01  -1.85063190E+01  -1.11049076E+01  -1.23839867E+01  -2.40575504E+00  -5.05670762E+00  -9.19984769E-01  -2.58418584E+00  -1.01822409E+00  -2.68242516E+00  -6.23526239E+00  -7.89946346E+00  -1.89304518E+00  -3.23896393E+00  -3.55724625E+00  -4.90316500E+00  -1.47448551E+01  -1.75059693E+01  -2.45604041E+01  -7.74549226E+00  -1.03102123E+01  -3.92033275E+00  -1.02357853E+01  -9.11184827E+00  -1.04577670E+01  -7.34336560E+00  -4.33602510E+00  -4.64548556E+00  -7.33929949E+00  -1.28861555E+01  -1.18919094E+01  -8.14220998E+00  -9.48812873E+00  -6.55862911E+00  -3.88249894E+00  -1.20298195E+01  -1.33757382E+01  -9.85845347E+00  -4.05670599E+00  -5.40262474E+00  -1.29387636E+01  -1.43286450E+00  -5.75464879E+00  -9.13330495E+00  -2.47839726E+00  -3.82431601E+00  -8.82995511E+00  -4.77424860E+01  -5.89739061E+00  -7.56159168E+00  -6.85845094E+00  -8.52265201E+00  -9.38372020E+00  -1.98788150E+01  -1.23878748E+01  -1.27390156E+01  -8.82235987E+00  -1.06587302E+01  -1.00412542E+01  -1.03507146E+01  -5.20906234E+00  -4.90029054E+00
