 TITLE = "Total Concentrations" 
VARIABLES = "X"          "Y"              "Z"            "H+"             "Al+++"          "CO2(aq)"        "NH3(aq)"        "Mg++"           "Ca++"           "Ca44++"         "Fe++"           "Fe+++"          "Cl-"            "K+"             "H2S(aq)"        "H2S34(aq)"      "SO4--"          "S34O4--"        "Na+"            "SiO2(aq)"       "O2(aq)"         "B(OH)3(aq)"     "HPO4--"         "NO3-"           "Methane(aq)"    "Formaldehyde"   "C5H7O2NSO4"     "HNO3(aq)"       "Al(OH)2+"       "Al(SO4)2-"      "Al(S34O4)2-"    "AlO2-"          "AlOH++"         "HCO3-"          "CO3--"          "CaCl+"          "Ca44Cl+"        "CaCl2(aq)"      "Ca44Cl2(aq)"    "CaOH+"          "Ca44OH+"        "CaSO4(aq)"      "CaS34O4(aq)"    "Ca44SO4(aq)"    "Ca44S34O4(aq)"  "Fe(OH)2(aq)"    "Fe(OH)3-"       "Fe(OH)4--"      "FeCl+"          "FeCl2(aq)"      "FeCl4--"        "FeOH+"          "FeSO4(aq)"      "FeS34O4(aq)"    "OH-"            "HS-"            "HS34-"          "H2PO4-"         "H3PO4(aq)"      "HAlO2(aq)"      "HSO4-"          "HS34O4-"        "HSiO3-"         "KCl(aq)"        "KHSO4(aq)"      "KHS34O4(aq)"    "KOH(aq)"        "KSO4-"          "KS34O4-"        "NaAlO2(aq)"     "NaCl(aq)"       "NaHSiO3(aq)"    "NaOH(aq)"       "NaSO4-"         "NaS34O4-"       "NH4+"           "H2(aq)"         "CaHPO4(aq)"     "Ca44HPO4(aq)"   "CaPO4-"         "Ca44PO4-"       "FeCO3(aq)"      "FeH2PO4+"       "FeHPO4(aq)"     "FePO4-"         "KHPO4-"         "PO4---"         "S--"            "S34--"          "BO2-"           "MgB(OH)4+"     
 ZONE I=           1 , J=           1 , K=           1  F=POINT
   5.00000000E-01   5.00000000E-01   5.00000000E-01  -5.82625347E+00  -1.03937110E+01  -2.74000816E+00  -1.34323444E+01  -1.28748448E+00   3.46407612E-02  -1.62959832E+00  -6.51906613E+00  -1.29999998E+01   4.55890926E-01  -1.93608591E+00  -2.78126142E+00  -4.14623538E+00  -2.00584959E+00  -3.35040969E+00  -3.62754924E-01  -3.37435187E+00  -3.74472744E+00  -3.39901192E+00  -6.81929610E+00  -4.40893534E+00  -9.42797834E+00  -9.29806525E-01  -1.54053609E+01  -1.22776639E+01  -1.14170314E+01  -1.25101182E+01  -1.51992384E+01  -1.29686815E+01  -1.03428208E+01  -2.87936776E+00  -6.83211827E+00  -9.21202040E-01  -2.58544112E+00  -1.01945419E+00  -2.68369327E+00  -7.53779041E+00  -9.20202949E+00  -1.91282819E+00  -3.25738828E+00  -3.57706726E+00  -4.92162736E+00  -1.65514639E+01  -2.06146234E+01  -2.89708868E+01  -6.94946677E+00  -9.51419963E+00  -3.12557238E+00  -1.07410705E+01  -8.33438851E+00  -9.67894861E+00  -8.64490980E+00  -3.66404859E+00  -5.02902255E+00  -6.19363228E+00  -1.04384430E+01  -1.24536380E+01  -6.85967554E+00  -8.20423563E+00  -7.23665498E+00  -3.88961081E+00  -1.07541735E+01  -1.20987336E+01  -1.11668761E+01  -4.08310529E+00  -5.42766539E+00  -1.48021867E+01  -1.43273712E+00  -6.43232386E+00  -1.04344883E+01  -2.49755731E+00  -3.84211741E+00  -8.82974901E+00  -4.77417194E+01  -6.05404086E+00  -7.71827993E+00  -8.31714647E+00  -9.98138555E+00  -1.03624076E+01  -1.79368989E+01  -1.17472823E+01  -1.34004683E+01  -8.98562641E+00  -1.21168160E+01  -1.06710417E+01  -1.20360157E+01  -6.49131793E+00  -6.17817081E+00
