 TITLE = "Porosity" 
 VARIABLES = "X"          "Y"              "Z"          "Porosity" 
 ZONE I=           1 , J=           1 , K=           1  F=POINT
   5.00000000E-01   5.00000000E-01   5.00000000E-01   6.03607669E-01
