 TITLE = "Mineral Rate (mol/m^3/sec)" 
VARIABLES = "X"          "Y"              "Z"            "FeS(am)"        "FeS34(am)"      "Siderite"       "SiO2(am)"       "Quartz"         "Calcite"        "Calcite44"      "Sepiolite"      "K-Feldspar"     "Kaolinite"      "C5H7O2NSO4(s)" 
 ZONE I=           1 , J=           1 , K=           1  F=POINT
   5.00000000E-01   5.00000000E-01   5.00000000E-01  -8.87661031E-11   0.00000000E+00   0.00000000E+00   0.00000000E+00   1.17216292E-30   3.21533018E-10   6.96022588E-12  -1.24767816E-13   1.94010256E-13  -9.70067662E-14   0.00000000E+00
