 TITLE = "Mineral Rate (mol/m^3/sec)" 
VARIABLES = "X"          "Y"              "Z"            "FeS(am)"        "FeS34(am)"      "Siderite"       "SiO2(am)"       "Quartz"         "Calcite"        "Calcite44"      "Sepiolite"      "K-Feldspar"     "Kaolinite"      "C5H7O2NSO4(s)" 
 ZONE I=           1 , J=           1 , K=           1  F=POINT
   5.00000000E-01   5.00000000E-01   5.00000000E-01  -1.00354268E-10  -5.61228360E-11   0.00000000E+00   0.00000000E+00   1.15160526E-30   6.32222262E-10   1.36833170E-11  -1.23922315E-13   1.94494124E-13  -9.72478919E-14   0.00000000E+00
