 TITLE = "Mineral Rate (mol/m^3/sec)" 
VARIABLES = "X"          "Y"              "Z"            "FeS(am)"        "FeS34(am)"      "Siderite"       "SiO2(am)"       "Quartz"         "Calcite"        "Calcite44"      "Sepiolite"      "K-Feldspar"     "Kaolinite"      "C5H7O2NSO4(s)" 
 ZONE I=           1 , J=           1 , K=           1  F=POINT
   5.00000000E-01   5.00000000E-01   5.00000000E-01  -8.76968295E-11   0.00000000E+00   0.00000000E+00   0.00000000E+00   1.17413049E-30   2.96935528E-10   6.42795388E-12  -1.24771344E-13   1.93914581E-13  -9.69589298E-14   0.00000000E+00
