 TITLE = "Mineral Rate (mol/m^3/sec)" 
VARIABLES = "X"          "Y"              "Z"            "FeS(am)"        "FeS34(am)"      "Siderite"       "SiO2(am)"       "Quartz"         "Calcite"        "Calcite44"      "Sepiolite"      "K-Feldspar"     "Kaolinite"      "C5H7O2NSO4(s)" 
 ZONE I=           1 , J=           1 , K=           1  F=POINT
   5.00000000E-01   5.00000000E-01   5.00000000E-01  -8.68520334E-11  -1.79794978E-11   0.00000000E+00   0.00000000E+00   1.16505971E-30   4.20282432E-10   9.09709209E-12  -1.24724296E-13   1.94263115E-13  -9.71330229E-14   0.00000000E+00
