 TITLE = "Mineral Rate (mol/m^3/sec)" 
VARIABLES = "X"          "Y"              "Z"            "FeS(am)"        "FeS34(am)"      "Siderite"       "SiO2(am)"       "Quartz"         "Calcite"        "Calcite44"      "Sepiolite"      "K-Feldspar"     "Kaolinite"      "C5H7O2NSO4(s)" 
 ZONE I=           1 , J=           1 , K=           1  F=POINT
   5.00000000E-01   5.00000000E-01   5.00000000E-01  -8.83212363E-11   0.00000000E+00   0.00000000E+00   0.00000000E+00   1.17318626E-30   3.08561668E-10   6.67953519E-12  -1.24769875E-13   1.93962069E-13  -9.69826735E-14   0.00000000E+00
