 TITLE = "Mineral Rate (mol/m^3/sec)" 
VARIABLES = "X"          "Y"              "Z"            "FeS(am)"        "FeS34(am)"      "Siderite"       "SiO2(am)"       "Quartz"         "Calcite"        "Calcite44"      "Sepiolite"      "K-Feldspar"     "Kaolinite"      "C5H7O2NSO4(s)" 
 ZONE I=           1 , J=           1 , K=           1  F=POINT
   5.00000000E-01   5.00000000E-01   5.00000000E-01  -9.68414747E-11  -5.40748393E-11   0.00000000E+00   0.00000000E+00   1.15541155E-30   5.69900744E-10   1.23347244E-11  -1.24360423E-13   1.94448560E-13  -9.72253030E-14   0.00000000E+00
