 TITLE = "Mineral Rate (mol/m^3/sec)" 
VARIABLES = "X"          "Y"              "Z"            "FeS(am)"        "FeS34(am)"      "Siderite"       "SiO2(am)"       "Quartz"         "Calcite"        "Calcite44"      "Sepiolite"      "K-Feldspar"     "Kaolinite"      "C5H7O2NSO4(s)" 
 ZONE I=           1 , J=           1 , K=           1  F=POINT
   5.00000000E-01   5.00000000E-01   5.00000000E-01  -1.20046051E-10  -6.83925807E-11   0.00000000E+00   0.00000000E+00   1.07787159E-30   2.01568077E-09   4.36203570E-11   3.17149433E-12   1.94719339E-13  -9.73504133E-14   0.00000000E+00
