 TITLE = "Mineral Rate (mol/m^3/sec)" 
VARIABLES = "X"          "Y"              "Z"            "FeS(am)"        "FeS34(am)"      "Siderite"       "SiO2(am)"       "Quartz"         "Calcite"        "Calcite44"      "Sepiolite"      "K-Feldspar"     "Kaolinite"      "C5H7O2NSO4(s)" 
 ZONE I=           1 , J=           1 , K=           1  F=POINT
   5.00000000E-01   5.00000000E-01   5.00000000E-01  -1.07204324E-10  -6.01904884E-11   0.00000000E+00   0.00000000E+00   1.13945482E-30   8.38734021E-10   1.81520822E-11  -1.18549642E-13   1.94585906E-13  -9.72931707E-14   0.00000000E+00
