 TITLE = "Mineral Rate (mol/m^3/sec)" 
VARIABLES = "X"          "Y"              "Z"            "FeS(am)"        "FeS34(am)"      "Siderite"       "SiO2(am)"       "Quartz"         "Calcite"        "Calcite44"      "Sepiolite"      "K-Feldspar"     "Kaolinite"      "C5H7O2NSO4(s)" 
 ZONE I=           1 , J=           1 , K=           1  F=POINT
   5.00000000E-01   5.00000000E-01   5.00000000E-01  -1.03778882E-10  -5.81436701E-11   0.00000000E+00   0.00000000E+00   1.14663090E-30   7.15445435E-10   1.54842064E-11  -1.22748801E-13   1.94539388E-13  -9.72702990E-14   0.00000000E+00
