 TITLE = "Mineral Rate (mol/m^3/sec)" 
VARIABLES = "X"          "Y"              "Z"            "FeS(am)"        "FeS34(am)"      "Siderite"       "SiO2(am)"       "Quartz"         "Calcite"        "Calcite44"      "Sepiolite"      "K-Feldspar"     "Kaolinite"      "C5H7O2NSO4(s)" 
 ZONE I=           1 , J=           1 , K=           1  F=POINT
   5.00000000E-01   5.00000000E-01   5.00000000E-01  -8.79560391E-11   0.00000000E+00   0.00000000E+00   0.00000000E+00   1.16686199E-30   3.94007601E-10   8.52852369E-12  -1.24742785E-13   1.94210773E-13  -9.71069847E-14   0.00000000E+00
