 TITLE = "Mineral Rate (mol/m^3/sec)" 
VARIABLES = "X"          "Y"              "Z"            "FeS(am)"        "FeS34(am)"      "Siderite"       "SiO2(am)"       "Quartz"         "Calcite"        "Calcite44"      "Sepiolite"      "K-Feldspar"     "Kaolinite"      "C5H7O2NSO4(s)" 
 ZONE I=           1 , J=           1 , K=           1  F=POINT
   5.00000000E-01   5.00000000E-01   5.00000000E-01  -9.02098873E-11  -5.02439160E-11   0.00000000E+00   0.00000000E+00   1.16095457E-30   4.82198354E-10   1.04369080E-11  -1.24644018E-13   1.94357885E-13  -9.71801631E-14   0.00000000E+00
