 TITLE = "Mineral Rate (mol/m^3/sec)" 
VARIABLES = "X"          "Y"              "Z"            "FeS(am)"        "FeS34(am)"      "Siderite"       "SiO2(am)"       "Quartz"         "Calcite"        "Calcite44"      "Sepiolite"      "K-Feldspar"     "Kaolinite"      "C5H7O2NSO4(s)" 
 ZONE I=           1 , J=           1 , K=           1  F=POINT
   5.00000000E-01   5.00000000E-01   5.00000000E-01  -8.60287665E-11   0.00000000E+00   0.00000000E+00   0.00000000E+00   1.17583052E-30   2.76887270E-10   5.99412400E-12  -1.24773218E-13   1.93821510E-13  -9.69123941E-14   0.00000000E+00
