 TITLE = "Mineral Rate (mol/m^3/sec)" 
VARIABLES = "X"          "Y"              "Z"            "FeS(am)"        "FeS34(am)"      "Siderite"       "SiO2(am)"       "Quartz"         "Calcite"        "Calcite44"      "Sepiolite"      "K-Feldspar"     "Kaolinite"      "C5H7O2NSO4(s)" 
 ZONE I=           1 , J=           1 , K=           1  F=POINT
   5.00000000E-01   5.00000000E-01   5.00000000E-01  -7.91977567E-11   0.00000000E+00   0.00000000E+00   0.00000000E+00   1.17995367E-30   2.33366220E-10   5.05235973E-12  -1.24775351E-13   1.93554123E-13  -9.67787126E-14   0.00000000E+00
