 TITLE = "Mineral Rate (mol/m^3/sec)" 
VARIABLES = "X"          "Y"              "Z"            "FeS(am)"        "FeS34(am)"      "Siderite"       "SiO2(am)"       "Quartz"         "Calcite"        "Calcite44"      "Sepiolite"      "K-Feldspar"     "Kaolinite"      "C5H7O2NSO4(s)" 
 ZONE I=           1 , J=           1 , K=           1  F=POINT
   5.00000000E-01   5.00000000E-01   5.00000000E-01  -9.34594717E-11  -5.21162103E-11   0.00000000E+00   0.00000000E+00   1.15845007E-30   5.21306888E-10   1.12831884E-11  -1.24551009E-13   1.94403112E-13  -9.72026982E-14   0.00000000E+00
