 TITLE = "Mineral Saturation State" 
VARIABLES = "X"          "Y"              "Z"            "FeS(am)"        "FeS34(am)"      "Siderite"       "SiO2(am)"       "Quartz"         "Calcite"        "Calcite44"      "Sepiolite"      "K-Feldspar"     "Kaolinite"      "C5H7O2NSO4(s)" 
 ZONE I=           1 , J=           1 , K=           1  F=POINT
   5.00000000E-01   5.00000000E-01   5.00000000E-01  -9.64337896E-01  -1.21594444E+00  -3.70687285E+00  -6.29569825E-01   7.99380788E-01   2.12269458E+00   4.58493450E-01  -1.78906615E+00   8.68977911E-01  -2.99882944E+00   0.00000000E+00
