 TITLE = "Mineral Saturation State" 
VARIABLES = "X"          "Y"              "Z"            "FeS(am)"        "FeS34(am)"      "Siderite"       "SiO2(am)"       "Quartz"         "Calcite"        "Calcite44"      "Sepiolite"      "K-Feldspar"     "Kaolinite"      "C5H7O2NSO4(s)" 
 ZONE I=           1 , J=           1 , K=           1  F=POINT
   5.00000000E-01   5.00000000E-01   5.00000000E-01  -1.45884974E+00  -1.70318862E+00  -3.56013113E+00  -6.52053431E-01   7.76897182E-01   2.57046435E+00   9.06263136E-01   1.42188959E+00   8.69325276E-01  -3.74491388E+00   0.00000000E+00
