 TITLE = "Mineral Saturation State" 
VARIABLES = "X"          "Y"              "Z"            "FeS(am)"        "FeS34(am)"      "Siderite"       "SiO2(am)"       "Quartz"         "Calcite"        "Calcite44"      "Sepiolite"      "K-Feldspar"     "Kaolinite"      "C5H7O2NSO4(s)" 
 ZONE I=           1 , J=           1 , K=           1  F=POINT
   5.00000000E-01   5.00000000E-01   5.00000000E-01  -7.67646606E-01  -1.02181726E+00  -3.72109195E+00  -6.25028641E-01   8.03921972E-01   1.95289290E+00   2.88691805E-01  -2.97315855E+00   8.68627274E-01  -2.71480236E+00   0.00000000E+00
