 TITLE = "Mineral Saturation State" 
VARIABLES = "X"          "Y"              "Z"            "FeS(am)"        "FeS34(am)"      "Siderite"       "SiO2(am)"       "Quartz"         "Calcite"        "Calcite44"      "Sepiolite"      "K-Feldspar"     "Kaolinite"      "C5H7O2NSO4(s)" 
 ZONE I=           1 , J=           1 , K=           1  F=POINT
   5.00000000E-01   5.00000000E-01   5.00000000E-01  -5.73598252E-01  -1.04164346E+00  -3.77139456E+00  -6.20892268E-01   8.08058345E-01   1.74527829E+00   8.10772506E-02  -4.37355514E+00   8.67769683E-01  -2.37670061E+00   0.00000000E+00
