 TITLE = "Mineral Saturation State" 
VARIABLES = "X"          "Y"              "Z"            "FeS(am)"        "FeS34(am)"      "Siderite"       "SiO2(am)"       "Quartz"         "Calcite"        "Calcite44"      "Sepiolite"      "K-Feldspar"     "Kaolinite"      "C5H7O2NSO4(s)" 
 ZONE I=           1 , J=           1 , K=           1  F=POINT
   5.00000000E-01   5.00000000E-01   5.00000000E-01  -8.07078855E-01  -1.06072935E+00  -3.71969466E+00  -6.25819306E-01   8.03131307E-01   1.98640465E+00   3.22203550E-01  -2.74249711E+00   8.68714675E-01  -2.77032691E+00   0.00000000E+00
