 TITLE = "Mineral Saturation State" 
VARIABLES = "X"          "Y"              "Z"            "FeS(am)"        "FeS34(am)"      "Siderite"       "SiO2(am)"       "Quartz"         "Calcite"        "Calcite44"      "Sepiolite"      "K-Feldspar"     "Kaolinite"      "C5H7O2NSO4(s)" 
 ZONE I=           1 , J=           1 , K=           1  F=POINT
   5.00000000E-01   5.00000000E-01   5.00000000E-01  -5.81349818E-01  -1.93174192E+00  -4.60446965E+00  -4.69783458E-01   9.59167155E-01   2.05632101E-01  -1.45857201E+00  -1.17475419E+01   8.28783543E-01  -9.87036920E-01   0.00000000E+00
