 TITLE = "Mineral Saturation State" 
VARIABLES = "X"          "Y"              "Z"            "FeS(am)"        "FeS34(am)"      "Siderite"       "SiO2(am)"       "Quartz"         "Calcite"        "Calcite44"      "Sepiolite"      "K-Feldspar"     "Kaolinite"      "C5H7O2NSO4(s)" 
 ZONE I=           1 , J=           1 , K=           1  F=POINT
   5.00000000E-01   5.00000000E-01   5.00000000E-01  -7.08491360E-01  -9.85033175E-01  -3.73008011E+00  -6.23735734E-01   8.05214879E-01   1.89390657E+00   2.29705497E-01  -3.37658594E+00   8.68444077E-01  -2.61752644E+00   0.00000000E+00
