 TITLE = "Mineral Saturation State" 
VARIABLES = "X"          "Y"              "Z"            "FeS(am)"        "FeS34(am)"      "Siderite"       "SiO2(am)"       "Quartz"         "Calcite"        "Calcite44"      "Sepiolite"      "K-Feldspar"     "Kaolinite"      "C5H7O2NSO4(s)" 
 ZONE I=           1 , J=           1 , K=           1  F=POINT
   5.00000000E-01   5.00000000E-01   5.00000000E-01  -4.93276462E-01  -1.05629593E+00  -3.77934951E+00  -6.19673923E-01   8.09276690E-01   1.67654691E+00   1.23458884E-02  -4.81738804E+00   8.67326681E-01  -2.26965589E+00   0.00000000E+00
