 TITLE = "Mineral Saturation State" 
VARIABLES = "X"          "Y"              "Z"            "FeS(am)"        "FeS34(am)"      "Siderite"       "SiO2(am)"       "Quartz"         "Calcite"        "Calcite44"      "Sepiolite"      "K-Feldspar"     "Kaolinite"      "C5H7O2NSO4(s)" 
 ZONE I=           1 , J=           1 , K=           1  F=POINT
   5.00000000E-01   5.00000000E-01   5.00000000E-01  -9.03689570E-01  -1.15608580E+00  -3.71343865E+00  -6.27987486E-01   8.00963127E-01   2.06940990E+00   4.05208776E-01  -2.16443372E+00   8.68890500E-01  -2.90909901E+00   0.00000000E+00
