 TITLE = "Mineral Saturation State" 
VARIABLES = "X"          "Y"              "Z"            "FeS(am)"        "FeS34(am)"      "Siderite"       "SiO2(am)"       "Quartz"         "Calcite"        "Calcite44"      "Sepiolite"      "K-Feldspar"     "Kaolinite"      "C5H7O2NSO4(s)" 
 ZONE I=           1 , J=           1 , K=           1  F=POINT
   5.00000000E-01   5.00000000E-01   5.00000000E-01  -5.22759865E-01  -1.88773382E+00  -4.72000282E+00   3.38988789E-04   1.42928960E+00   8.97907796E-02  -1.57444830E+00  -1.02205650E+01   8.67694266E-01  -2.44933627E+00   0.00000000E+00
