 TITLE = "Mineral Saturation State" 
VARIABLES = "X"          "Y"              "Z"            "FeS(am)"        "FeS34(am)"      "Siderite"       "SiO2(am)"       "Quartz"         "Calcite"        "Calcite44"      "Sepiolite"      "K-Feldspar"     "Kaolinite"      "C5H7O2NSO4(s)" 
 ZONE I=           1 , J=           1 , K=           1  F=POINT
   5.00000000E-01   5.00000000E-01   5.00000000E-01  -4.18561431E-01  -1.06721823E+00  -3.78442242E+00  -6.18541071E-01   8.10409542E-01   1.61268491E+00  -5.15160894E-02  -5.21917881E+00   8.66820744E-01  -2.17303486E+00   0.00000000E+00
