 TITLE = "Mineral Saturation State" 
VARIABLES = "X"          "Y"              "Z"            "FeS(am)"        "FeS34(am)"      "Siderite"       "SiO2(am)"       "Quartz"         "Calcite"        "Calcite44"      "Sepiolite"      "K-Feldspar"     "Kaolinite"      "C5H7O2NSO4(s)" 
 ZONE I=           1 , J=           1 , K=           1  F=POINT
   5.00000000E-01   5.00000000E-01   5.00000000E-01  -5.56137612E-01  -1.04538173E+00  -3.77360340E+00  -6.20617997E-01   8.08332616E-01   1.72992287E+00   6.57218359E-02  -4.47372962E+00   8.67678976E-01  -2.35251998E+00   0.00000000E+00
