 TITLE = "Mineral Saturation State" 
VARIABLES = "X"          "Y"              "Z"            "FeS(am)"        "FeS34(am)"      "Siderite"       "SiO2(am)"       "Quartz"         "Calcite"        "Calcite44"      "Sepiolite"      "K-Feldspar"     "Kaolinite"      "C5H7O2NSO4(s)" 
 ZONE I=           1 , J=           1 , K=           1  F=POINT
   5.00000000E-01   5.00000000E-01   5.00000000E-01  -3.36624922E-01  -1.70445430E+00  -4.71293006E+00   7.63780551E-04   1.42971439E+00   9.35366335E-02  -1.57104592E+00  -1.27008124E+01   8.56227652E-01  -1.67360537E+00   0.00000000E+00
