 TITLE = "Mineral Saturation State" 
VARIABLES = "X"          "Y"              "Z"            "FeS(am)"        "FeS34(am)"      "Siderite"       "SiO2(am)"       "Quartz"         "Calcite"        "Calcite44"      "Sepiolite"      "K-Feldspar"     "Kaolinite"      "C5H7O2NSO4(s)" 
 ZONE I=           1 , J=           1 , K=           1  F=POINT
   5.00000000E-01   5.00000000E-01   5.00000000E-01  -6.10472888E-01  -1.03213025E+00  -3.76532035E+00  -6.21507505E-01   8.07443109E-01   1.77925615E+00   1.15055100E-01  -4.14988173E+00   8.67954915E-01  -2.43071952E+00   0.00000000E+00
