 TITLE = "Mineral Saturation State" 
VARIABLES = "X"          "Y"              "Z"            "FeS(am)"        "FeS34(am)"      "Siderite"       "SiO2(am)"       "Quartz"         "Calcite"        "Calcite44"      "Sepiolite"      "K-Feldspar"     "Kaolinite"      "C5H7O2NSO4(s)" 
 ZONE I=           1 , J=           1 , K=           1  F=POINT
   5.00000000E-01   5.00000000E-01   5.00000000E-01  -8.51966447E-01  -1.10503260E+00  -3.71735817E+00  -6.26780476E-01   8.02170137E-01   2.02473583E+00   3.60534718E-01  -2.47666996E+00   8.68802484E-01  -2.83421788E+00   0.00000000E+00
