 TITLE = "Mineral Saturation State" 
VARIABLES = "X"          "Y"              "Z"            "FeS(am)"        "FeS34(am)"      "Siderite"       "SiO2(am)"       "Quartz"         "Calcite"        "Calcite44"      "Sepiolite"      "K-Feldspar"     "Kaolinite"      "C5H7O2NSO4(s)" 
 ZONE I=           1 , J=           1 , K=           1  F=POINT
   5.00000000E-01   5.00000000E-01   5.00000000E-01  -5.91726729E-01  -1.03728015E+00  -3.76868173E+00  -6.21187414E-01   8.07763199E-01   1.76166980E+00   9.74687558E-02  -4.26599219E+00   8.67861632E-01  -2.40267397E+00   0.00000000E+00
