 TITLE = "Mineral Saturation State" 
VARIABLES = "X"          "Y"              "Z"            "FeS(am)"        "FeS34(am)"      "Siderite"       "SiO2(am)"       "Quartz"         "Calcite"        "Calcite44"      "Sepiolite"      "K-Feldspar"     "Kaolinite"      "C5H7O2NSO4(s)" 
 ZONE I=           1 , J=           1 , K=           1  F=POINT
   5.00000000E-01   5.00000000E-01   5.00000000E-01  -1.23993530E+00  -1.48775536E+00  -3.62517214E+00  -6.41345478E-01   7.87605135E-01   2.40400517E+00   7.39803982E-01   2.25456748E-01   8.69243308E-01  -3.47262487E+00   0.00000000E+00
