 TITLE = "Mineral Saturation State" 
VARIABLES = "X"          "Y"              "Z"            "FeS(am)"        "FeS34(am)"      "Siderite"       "SiO2(am)"       "Quartz"         "Calcite"        "Calcite44"      "Sepiolite"      "K-Feldspar"     "Kaolinite"      "C5H7O2NSO4(s)" 
 ZONE I=           1 , J=           1 , K=           1  F=POINT
   5.00000000E-01   5.00000000E-01   5.00000000E-01  -6.49439746E-01  -1.01859707E+00  -3.75586185E+00  -6.22244943E-01   8.06705670E-01   1.81883749E+00   1.54636436E-01  -3.88598487E+00   8.68145819E-01  -2.49447909E+00   0.00000000E+00
