 TITLE = "Mineral Saturation State" 
VARIABLES = "X"          "Y"              "Z"            "FeS(am)"        "FeS34(am)"      "Siderite"       "SiO2(am)"       "Quartz"         "Calcite"        "Calcite44"      "Sepiolite"      "K-Feldspar"     "Kaolinite"      "C5H7O2NSO4(s)" 
 ZONE I=           1 , J=           1 , K=           1  F=POINT
   5.00000000E-01   5.00000000E-01   5.00000000E-01  -1.03493205E+00  -1.28561648E+00  -3.69305674E+00  -6.31862664E-01   7.97087949E-01   2.19127056E+00   5.27069414E-01  -1.30184339E+00   8.69067721E-01  -3.11475044E+00   0.00000000E+00
