 TITLE = "Mineral Saturation State" 
VARIABLES = "X"          "Y"              "Z"            "FeS(am)"        "FeS34(am)"      "Siderite"       "SiO2(am)"       "Quartz"         "Calcite"        "Calcite44"      "Sepiolite"      "K-Feldspar"     "Kaolinite"      "C5H7O2NSO4(s)" 
 ZONE I=           1 , J=           1 , K=           1  F=POINT
   5.00000000E-01   5.00000000E-01   5.00000000E-01  -5.39371307E-01  -1.04862337E+00  -3.77542216E+00  -6.20361378E-01   8.08589236E-01   1.71547259E+00   5.12715624E-02  -4.56746965E+00   8.67589415E-01  -2.32990179E+00   0.00000000E+00
