 TITLE = "Mineral Saturation State" 
VARIABLES = "X"          "Y"              "Z"            "FeS(am)"        "FeS34(am)"      "Siderite"       "SiO2(am)"       "Quartz"         "Calcite"        "Calcite44"      "Sepiolite"      "K-Feldspar"     "Kaolinite"      "C5H7O2NSO4(s)" 
 ZONE I=           1 , J=           1 , K=           1  F=POINT
   5.00000000E-01   5.00000000E-01   5.00000000E-01  -1.12385786E+00  -1.37332045E+00  -3.67068436E+00  -6.35276372E-01   7.93674241E-01   2.27861100E+00   6.14409839E-01  -6.76866724E-01   8.69155691E-01  -3.26232501E+00   0.00000000E+00
