 TITLE = "Mineral Saturation State" 
VARIABLES = "X"          "Y"              "Z"            "FeS(am)"        "FeS34(am)"      "Siderite"       "SiO2(am)"       "Quartz"         "Calcite"        "Calcite44"      "Sepiolite"      "K-Feldspar"     "Kaolinite"      "C5H7O2NSO4(s)" 
 ZONE I=           1 , J=           1 , K=           1  F=POINT
   5.00000000E-01   5.00000000E-01   5.00000000E-01  -4.08091971E-01  -1.06881376E+00  -3.78519240E+00  -6.18373270E-01   8.10577344E-01   1.60334459E+00  -6.08564105E-02  -5.27710061E+00   8.66738193E-01  -2.15913644E+00   0.00000000E+00
