 TITLE = "Mineral Saturation State" 
VARIABLES = "X"          "Y"              "Z"            "FeS(am)"        "FeS34(am)"      "Siderite"       "SiO2(am)"       "Quartz"         "Calcite"        "Calcite44"      "Sepiolite"      "K-Feldspar"     "Kaolinite"      "C5H7O2NSO4(s)" 
 ZONE I=           1 , J=           1 , K=           1  F=POINT
   5.00000000E-01   5.00000000E-01   5.00000000E-01  -4.65931289E-01  -1.06033889E+00  -3.78124197E+00  -6.19267605E-01   8.09683008E-01   1.65353115E+00  -1.06698661E-02  -4.96336531E+00   8.67155623E-01  -2.23451328E+00   0.00000000E+00
