 TITLE = "Mineral Saturation State" 
VARIABLES = "X"          "Y"              "Z"            "FeS(am)"        "FeS34(am)"      "Siderite"       "SiO2(am)"       "Quartz"         "Calcite"        "Calcite44"      "Sepiolite"      "K-Feldspar"     "Kaolinite"      "C5H7O2NSO4(s)" 
 ZONE I=           1 , J=           1 , K=           1  F=POINT
   5.00000000E-01   5.00000000E-01   5.00000000E-01  -4.79278102E-01  -1.05839250E+00  -3.78034118E+00  -6.19466437E-01   8.09484176E-01   1.66478639E+00   5.85379473E-04  -4.89214539E+00   8.67240795E-01  -2.25165387E+00   0.00000000E+00
