 TITLE = "Mineral Saturation State" 
VARIABLES = "X"          "Y"              "Z"            "FeS(am)"        "FeS34(am)"      "Siderite"       "SiO2(am)"       "Quartz"         "Calcite"        "Calcite44"      "Sepiolite"      "K-Feldspar"     "Kaolinite"      "C5H7O2NSO4(s)" 
 ZONE I=           1 , J=           1 , K=           1  F=POINT
   5.00000000E-01   5.00000000E-01   5.00000000E-01  -6.29753616E-01  -1.02598935E+00  -3.76112599E+00  -6.21857753E-01   8.07092861E-01   1.79823175E+00   1.34030702E-01  -4.02380132E+00   8.68049620E-01  -2.46117973E+00   0.00000000E+00
