 TITLE = "Mineral Saturation State" 
VARIABLES = "X"          "Y"              "Z"            "FeS(am)"        "FeS34(am)"      "Siderite"       "SiO2(am)"       "Quartz"         "Calcite"        "Calcite44"      "Sepiolite"      "K-Feldspar"     "Kaolinite"      "C5H7O2NSO4(s)" 
 ZONE I=           1 , J=           1 , K=           1  F=POINT
   5.00000000E-01   5.00000000E-01   5.00000000E-01  -5.07947644E-01  -1.05400642E+00  -3.77823112E+00  -6.19891247E-01   8.09059367E-01   1.68886900E+00   2.46679773E-02  -4.73868722E+00   8.67413357E-01  -2.28861773E+00   0.00000000E+00
