 TITLE = "Mineral Saturation State" 
VARIABLES = "X"          "Y"              "Z"            "FeS(am)"        "FeS34(am)"      "Siderite"       "SiO2(am)"       "Quartz"         "Calcite"        "Calcite44"      "Sepiolite"      "K-Feldspar"     "Kaolinite"      "C5H7O2NSO4(s)" 
 ZONE I=           1 , J=           1 , K=           1  F=POINT
   5.00000000E-01   5.00000000E-01   5.00000000E-01  -4.29553631E-01  -1.06558913E+00  -3.78365475E+00  -6.18713832E-01   8.10236782E-01   1.62234374E+00  -4.18572636E-02  -5.15905868E+00   8.66903711E-01  -2.18746971E+00   0.00000000E+00
