 TITLE = "Mineral Saturation State" 
VARIABLES = "X"          "Y"              "Z"            "FeS(am)"        "FeS34(am)"      "Siderite"       "SiO2(am)"       "Quartz"         "Calcite"        "Calcite44"      "Sepiolite"      "K-Feldspar"     "Kaolinite"      "C5H7O2NSO4(s)" 
 ZONE I=           1 , J=           1 , K=           1  F=POINT
   5.00000000E-01   5.00000000E-01   5.00000000E-01  -4.41094989E-01  -1.06391219E+00  -3.78287867E+00  -6.18892081E-01   8.10058532E-01   1.63234904E+00  -3.18519681E-02  -5.09654060E+00   8.66987143E-01  -2.20248948E+00   0.00000000E+00
