 TITLE = "Isotope ratios" 
VARIABLES = "X"          "Y"              "Z"            "Ca++"           "H2S(aq)"        "SO4--"         
 ZONE I=           1 , J=           1 , K=           1  F=POINT
   5.00000000E-01   5.00000000E-01   5.00000000E-01   2.16643814E+01   8.09305093E+03   2.10025207E+01
