 TITLE = "Isotope ratios" 
VARIABLES = "X"          "Y"              "Z"            "Ca++"           "H2S(aq)"        "SO4--"         
 ZONE I=           1 , J=           1 , K=           1  F=POINT
   5.00000000E-01   5.00000000E-01   5.00000000E-01   2.16643550E+01   9.34341044E+03   2.10021848E+01
