 TITLE = "Isotope ratios" 
VARIABLES = "X"          "Y"              "Z"            "Ca++"           "H2S(aq)"        "SO4--"         
 ZONE I=           1 , J=           1 , K=           1  F=POINT
   5.00000000E-01   5.00000000E-01   5.00000000E-01   2.16644538E+01   5.44001055E+03   2.10036884E+01
