 TITLE = "Isotope ratios" 
VARIABLES = "X"          "Y"              "Z"            "Calcite"        "FeS(am)"       
 ZONE I=           1 , J=           1 , K=           1  F=POINT
   5.00000000E-01   5.00000000E-01   5.00000000E-01  -3.49317025E-01  -6.93873104E+02
