 TITLE = "Isotope ratios" 
VARIABLES = "X"          "Y"              "Z"            "Calcite"        "FeS(am)"       
 ZONE I=           1 , J=           1 , K=           1  F=POINT
   5.00000000E-01   5.00000000E-01   5.00000000E-01  -3.49235444E-01  -8.77713862E+02
