 TITLE = "Total Concentrations" 
VARIABLES = "X"          "Y"              "Z"            "H+"             "Al+++"          "CO2(aq)"        "NH3(aq)"        "Mg++"           "Ca++"           "Ca44++"         "Fe++"           "Fe+++"          "Cl-"            "K+"             "H2S(aq)"        "H2S34(aq)"      "SO4--"          "S34O4--"        "Na+"            "SiO2(aq)"       "O2(aq)"         "B(OH)3(aq)"     "HPO4--"         "NO3-"           "Methane(aq)"    "Formaldehyde"   "C5H7O2NSO4"    
 ZONE I=           1 , J=           1 , K=           1  F=POINT
   5.00000000E-01   5.00000000E-01   5.00000000E-01  -3.80055710E-03   1.20898794E-11   4.04439570E-03   1.48000000E-09   5.10641034E-02   1.31460673E+00   2.84835952E-02   1.65835917E-04   1.00000000E-13   3.21479133E+00   1.19997408E-02   1.09913812E-04   3.12603246E-05   2.67948053E-02   1.20818253E-03   4.74000000E-01   1.02599843E-04   1.80000000E-04   4.00000000E-04   1.70000000E-06   3.90000000E-05   8.50265620E-09   1.19997327E-01   3.92793469E-16
