 TITLE = "Total Concentrations" 
VARIABLES = "X"          "Y"              "Z"            "H+"             "Al+++"          "CO2(aq)"        "NH3(aq)"        "Mg++"           "Ca++"           "Ca44++"         "Fe++"           "Fe+++"          "Cl-"            "K+"             "H2S(aq)"        "H2S34(aq)"      "SO4--"          "S34O4--"        "Na+"            "SiO2(aq)"       "O2(aq)"         "B(OH)3(aq)"     "HPO4--"         "NO3-"           "Methane(aq)"    "Formaldehyde"   "C5H7O2NSO4"    
 ZONE I=           1 , J=           1 , K=           1  F=POINT
   5.00000000E-01   5.00000000E-01   5.00000000E-01  -4.13658709E-03   9.92709152E-12   4.27468472E-03   1.48000000E-09   5.10637645E-02   1.31483368E+00   2.84885080E-02   1.03045747E-04   1.00000000E-13   3.21479133E+00   1.19998726E-02   4.98365770E-05   2.77573209E-05   2.67955638E-02   1.20821415E-03   4.74000000E-01   1.02354953E-04   1.80000000E-04   4.00000000E-04   1.70000000E-06   3.90000000E-05   9.33721491E-09   1.19998905E-01   3.92746807E-16
