 TITLE = "Total Concentrations" 
VARIABLES = "X"          "Y"              "Z"            "H+"             "Al+++"          "CO2(aq)"        "NH3(aq)"        "Mg++"           "Ca++"           "Ca44++"         "Fe++"           "Fe+++"          "Cl-"            "K+"             "H2S(aq)"        "H2S34(aq)"      "SO4--"          "S34O4--"        "Na+"            "SiO2(aq)"       "O2(aq)"         "B(OH)3(aq)"     "HPO4--"         "NO3-"           "Methane(aq)"    "Formaldehyde"   "C5H7O2NSO4"    
 ZONE I=           1 , J=           1 , K=           1  F=POINT
   5.00000000E-01   5.00000000E-01   5.00000000E-01  -4.30940294E-03   9.48650061E-12   4.39194065E-03   1.48000000E-09   5.10636605E-02   1.31494893E+00   2.84910024E-02   7.20383842E-05   1.00000000E-13   3.21479133E+00   1.19999133E-02   2.97021601E-05   1.66410793E-05   2.67957974E-02   1.20822388E-03   4.74000000E-01   1.02280261E-04   1.80000000E-04   4.00000000E-04   1.70000000E-06   3.90000000E-05   9.61827734E-09   1.19999391E-01   3.92724738E-16
