 TITLE = "Total Concentrations" 
VARIABLES = "X"          "Y"              "Z"            "H+"             "Al+++"          "CO2(aq)"        "NH3(aq)"        "Mg++"           "Ca++"           "Ca44++"         "Fe++"           "Fe+++"          "Cl-"            "K+"             "H2S(aq)"        "H2S34(aq)"      "SO4--"          "S34O4--"        "Na+"            "SiO2(aq)"       "O2(aq)"         "B(OH)3(aq)"     "HPO4--"         "NO3-"           "Methane(aq)"    "Formaldehyde"   "C5H7O2NSO4"    
 ZONE I=           1 , J=           1 , K=           1  F=POINT
   5.00000000E-01   5.00000000E-01   5.00000000E-01  -4.00614820E-03   1.05495974E-11   4.18783623E-03   1.48000000E-09   5.10638687E-02   1.31474820E+00   2.84866577E-02   1.24833694E-04   1.00000000E-13   3.21479133E+00   1.19998320E-02   6.83865689E-05   3.12384306E-05   2.67953304E-02   1.20820442E-03   4.74000000E-01   1.02430175E-04   1.80000000E-04   4.00000000E-04   1.70000000E-06   3.90000000E-05   9.06877018E-09   1.19998419E-01   3.92764693E-16
