 TITLE = "Total Concentrations" 
VARIABLES = "X"          "Y"              "Z"            "H+"             "Al+++"          "CO2(aq)"        "NH3(aq)"        "Mg++"           "Ca++"           "Ca44++"         "Fe++"           "Fe+++"          "Cl-"            "K+"             "H2S(aq)"        "H2S34(aq)"      "SO4--"          "S34O4--"        "Na+"            "SiO2(aq)"       "O2(aq)"         "B(OH)3(aq)"     "HPO4--"         "NO3-"           "Methane(aq)"    "Formaldehyde"   "C5H7O2NSO4"    
 ZONE I=           1 , J=           1 , K=           1  F=POINT
   5.00000000E-01   5.00000000E-01   5.00000000E-01  -4.06912748E-03   1.02135530E-11   4.22847399E-03   1.48000000E-09   5.10638166E-02   1.31478821E+00   2.84875238E-02   1.15606147E-04   1.00000000E-13   3.21479133E+00   1.19998523E-02   5.90423195E-05   3.12335674E-05   2.67954471E-02   1.20820929E-03   4.74000000E-01   1.02392541E-04   1.80000000E-04   4.00000000E-04   1.70000000E-06   3.90000000E-05   9.20157528E-09   1.19998662E-01   3.92756118E-16
