 TITLE = "Total Concentrations" 
VARIABLES = "X"          "Y"              "Z"            "H+"             "Al+++"          "CO2(aq)"        "NH3(aq)"        "Mg++"           "Ca++"           "Ca44++"         "Fe++"           "Fe+++"          "Cl-"            "K+"             "H2S(aq)"        "H2S34(aq)"      "SO4--"          "S34O4--"        "Na+"            "SiO2(aq)"       "O2(aq)"         "B(OH)3(aq)"     "HPO4--"         "NO3-"           "Methane(aq)"    "Formaldehyde"   "C5H7O2NSO4"    
 ZONE I=           1 , J=           1 , K=           1  F=POINT
   5.00000000E-01   5.00000000E-01   5.00000000E-01  -3.59849425E-03   1.48390536E-09   1.12910050E-02   1.48000000E-09   5.62252264E-02   1.29805976E+00   2.81003744E-02   7.49326662E-04   1.00000000E-13   3.21479133E+00   9.99201446E-03   1.22863303E-02   5.26735745E-04   1.52018796E-02   7.12707108E-04   4.74000000E-01   4.24160178E-04   1.80000000E-04   4.00000000E-04   1.70000000E-06   3.90000000E-05   7.92927309E-10   9.58205397E-02   3.94356992E-16
