 TITLE = "Total Concentrations" 
VARIABLES = "X"          "Y"              "Z"            "H+"             "Al+++"          "CO2(aq)"        "NH3(aq)"        "Mg++"           "Ca++"           "Ca44++"         "Fe++"           "Fe+++"          "Cl-"            "K+"             "H2S(aq)"        "H2S34(aq)"      "SO4--"          "S34O4--"        "Na+"            "SiO2(aq)"       "O2(aq)"         "B(OH)3(aq)"     "HPO4--"         "NO3-"           "Methane(aq)"    "Formaldehyde"   "C5H7O2NSO4"    
 ZONE I=           1 , J=           1 , K=           1  F=POINT
   5.00000000E-01   5.00000000E-01   5.00000000E-01  -3.74786232E-03   1.26054621E-11   4.00537015E-03   1.48000000E-09   5.10641817E-02   1.31456817E+00   2.84827605E-02   1.78633143E-04   1.00000000E-13   3.21479133E+00   1.19997105E-02   1.22886034E-04   3.12676267E-05   2.67946303E-02   1.20817523E-03   4.74000000E-01   1.02656490E-04   1.80000000E-04   4.00000000E-04   1.70000000E-06   3.90000000E-05   8.32429748E-09   1.19996962E-01   3.92800914E-16
