 TITLE = "Total Concentrations" 
VARIABLES = "X"          "Y"              "Z"            "H+"             "Al+++"          "CO2(aq)"        "NH3(aq)"        "Mg++"           "Ca++"           "Ca44++"         "Fe++"           "Fe+++"          "Cl-"            "K+"             "H2S(aq)"        "H2S34(aq)"      "SO4--"          "S34O4--"        "Na+"            "SiO2(aq)"       "O2(aq)"         "B(OH)3(aq)"     "HPO4--"         "NO3-"           "Methane(aq)"    "Formaldehyde"   "C5H7O2NSO4"    
 ZONE I=           1 , J=           1 , K=           1  F=POINT
   5.00000000E-01   5.00000000E-01   5.00000000E-01  -3.95152728E-03   1.08907160E-11   4.15130612E-03   1.48000000E-09   5.10639209E-02   1.31471220E+00   2.84858785E-02   1.34132763E-04   1.00000000E-13   3.21479133E+00   1.19998117E-02   7.78023229E-05   3.12432944E-05   2.67952137E-02   1.20819956E-03   4.74000000E-01   1.02467840E-04   1.80000000E-04   4.00000000E-04   1.70000000E-06   3.90000000E-05   8.93865093E-09   1.19998176E-01   3.92772294E-16
