 TITLE = "Total Concentrations" 
VARIABLES = "X"          "Y"              "Z"            "H+"             "Al+++"          "CO2(aq)"        "NH3(aq)"        "Mg++"           "Ca++"           "Ca44++"         "Fe++"           "Fe+++"          "Cl-"            "K+"             "H2S(aq)"        "H2S34(aq)"      "SO4--"          "S34O4--"        "Na+"            "SiO2(aq)"       "O2(aq)"         "B(OH)3(aq)"     "HPO4--"         "NO3-"           "Methane(aq)"    "Formaldehyde"   "C5H7O2NSO4"    
 ZONE I=           1 , J=           1 , K=           1  F=POINT
   5.00000000E-01   5.00000000E-01   5.00000000E-01  -3.81939109E-03   1.19184560E-11   4.05816025E-03   1.48000000E-09   5.10640774E-02   1.31462032E+00   2.84838894E-02   1.61448680E-04   1.00000000E-13   3.21479133E+00   1.19997510E-02   1.05468244E-04   3.12578910E-05   2.67948637E-02   1.20818496E-03   4.74000000E-01   1.02580970E-04   1.80000000E-04   4.00000000E-04   1.70000000E-06   3.90000000E-05   8.56319683E-09   1.19997448E-01   3.92790814E-16
