 TITLE = "Total Concentrations" 
VARIABLES = "X"          "Y"              "Z"            "H+"             "Al+++"          "CO2(aq)"        "NH3(aq)"        "Mg++"           "Ca++"           "Ca44++"         "Fe++"           "Fe+++"          "Cl-"            "K+"             "H2S(aq)"        "H2S34(aq)"      "SO4--"          "S34O4--"        "Na+"            "SiO2(aq)"       "O2(aq)"         "B(OH)3(aq)"     "HPO4--"         "NO3-"           "Methane(aq)"    "Formaldehyde"   "C5H7O2NSO4"    
 ZONE I=           1 , J=           1 , K=           1  F=POINT
   5.00000000E-01   5.00000000E-01   5.00000000E-01  -3.83897076E-03   1.17471269E-11   4.07235366E-03   1.48000000E-09   5.10640513E-02   1.31463433E+00   2.84841928E-02   1.57005414E-04   1.00000000E-13   3.21479133E+00   1.19997611E-02   1.00966646E-04   3.12554577E-05   2.67949220E-02   1.20818740E-03   4.74000000E-01   1.02562102E-04   1.80000000E-04   4.00000000E-04   1.70000000E-06   3.90000000E-05   8.62429889E-09   1.19997569E-01   3.92788057E-16
