 TITLE = "Total Concentrations" 
VARIABLES = "X"          "Y"              "Z"            "H+"             "Al+++"          "CO2(aq)"        "NH3(aq)"        "Mg++"           "Ca++"           "Ca44++"         "Fe++"           "Fe+++"          "Cl-"            "K+"             "H2S(aq)"        "H2S34(aq)"      "SO4--"          "S34O4--"        "Na+"            "SiO2(aq)"       "O2(aq)"         "B(OH)3(aq)"     "HPO4--"         "NO3-"           "Methane(aq)"    "Formaldehyde"   "C5H7O2NSO4"    
 ZONE I=           1 , J=           1 , K=           1  F=POINT
   5.00000000E-01   5.00000000E-01   5.00000000E-01  -4.54719570E-03   9.62747593E-12   4.53723493E-03   1.48000000E-09   5.10635966E-02   1.31509150E+00   2.84940880E-02   4.55066396E-05   1.00000000E-13   3.21479133E+00   1.19999438E-02   1.25409777E-05   7.08779809E-06   2.67959728E-02   1.20823120E-03   4.74000000E-01   1.02245416E-04   1.80000000E-04   4.00000000E-04   1.70000000E-06   3.90000000E-05   9.84107164E-09   1.19999756E-01   3.92698705E-16
