 TITLE = "Total Concentrations" 
VARIABLES = "X"          "Y"              "Z"            "H+"             "Al+++"          "CO2(aq)"        "NH3(aq)"        "Mg++"           "Ca++"           "Ca44++"         "Fe++"           "Fe+++"          "Cl-"            "K+"             "H2S(aq)"        "H2S34(aq)"      "SO4--"          "S34O4--"        "Na+"            "SiO2(aq)"       "O2(aq)"         "B(OH)3(aq)"     "HPO4--"         "NO3-"           "Methane(aq)"    "Formaldehyde"   "C5H7O2NSO4"    
 ZONE I=           1 , J=           1 , K=           1  F=POINT
   5.00000000E-01   5.00000000E-01   5.00000000E-01  -4.03641623E-03   1.03805450E-11   4.20756222E-03   1.48000000E-09   5.10638427E-02   1.31476762E+00   2.84870782E-02   1.20202017E-04   1.00000000E-13   3.21479133E+00   1.19998422E-02   6.36965432E-05   3.12359989E-05   2.67953887E-02   1.20820685E-03   4.74000000E-01   1.02411354E-04   1.80000000E-04   4.00000000E-04   1.70000000E-06   3.90000000E-05   9.13482861E-09   1.19998541E-01   3.92760494E-16
