 TITLE = "Total Concentrations" 
VARIABLES = "X"          "Y"              "Z"            "H+"             "Al+++"          "CO2(aq)"        "NH3(aq)"        "Mg++"           "Ca++"           "Ca44++"         "Fe++"           "Fe+++"          "Cl-"            "K+"             "H2S(aq)"        "H2S34(aq)"      "SO4--"          "S34O4--"        "Na+"            "SiO2(aq)"       "O2(aq)"         "B(OH)3(aq)"     "HPO4--"         "NO3-"           "Methane(aq)"    "Formaldehyde"   "C5H7O2NSO4"    
 ZONE I=           1 , J=           1 , K=           1  F=POINT
   5.00000000E-01   5.00000000E-01   5.00000000E-01  -3.69981328E-03   1.31246825E-11   3.96924627E-03   1.48000000E-09   5.10642599E-02   1.31453246E+00   2.84819873E-02   1.90851567E-04   1.00000000E-13   3.21479133E+00   1.19996801E-02   1.35279463E-04   3.12749311E-05   2.67944553E-02   1.20816792E-03   4.74000000E-01   1.02713179E-04   1.80000000E-04   4.00000000E-04   1.70000000E-06   3.90000000E-05   8.15063271E-09   1.19996598E-01   3.92807720E-16
