 TITLE = "Total Concentrations" 
VARIABLES = "X"          "Y"              "Z"            "H+"             "Al+++"          "CO2(aq)"        "NH3(aq)"        "Mg++"           "Ca++"           "Ca44++"         "Fe++"           "Fe+++"          "Cl-"            "K+"             "H2S(aq)"        "H2S34(aq)"      "SO4--"          "S34O4--"        "Na+"            "SiO2(aq)"       "O2(aq)"         "B(OH)3(aq)"     "HPO4--"         "NO3-"           "Methane(aq)"    "Formaldehyde"   "C5H7O2NSO4"    
 ZONE I=           1 , J=           1 , K=           1  F=POINT
   5.00000000E-01   5.00000000E-01   5.00000000E-01  -1.54574374E-03   9.04027289E-11   3.13999087E-03   1.48000000E-09   5.15847214E-02   1.31132078E+00   2.84099089E-02   7.49326662E-04   1.00000000E-13   3.21479133E+00   1.18007415E-02   1.87151958E-03   8.07644799E-05   2.56166903E-02   1.15867837E-03   4.74000000E-01   4.22753796E-04   1.80000000E-04   4.00000000E-04   1.70000000E-06   3.90000000E-05   3.73268665E-10   1.17542104E-01   3.93223005E-16
