 TITLE = "Total Concentrations" 
VARIABLES = "X"          "Y"              "Z"            "H+"             "Al+++"          "CO2(aq)"        "NH3(aq)"        "Mg++"           "Ca++"           "Ca44++"         "Fe++"           "Fe+++"          "Cl-"            "K+"             "H2S(aq)"        "H2S34(aq)"      "SO4--"          "S34O4--"        "Na+"            "SiO2(aq)"       "O2(aq)"         "B(OH)3(aq)"     "HPO4--"         "NO3-"           "Methane(aq)"    "Formaldehyde"   "C5H7O2NSO4"    
 ZONE I=           1 , J=           1 , K=           1  F=POINT
   5.00000000E-01   5.00000000E-01   5.00000000E-01  -4.67968382E-03   1.01544295E-11   4.61285470E-03   1.48000000E-09   5.10636264E-02   1.31516564E+00   2.84956924E-02   3.60351450E-05   1.00000000E-13   3.21479133E+00   1.19999539E-02   6.43190539E-06   3.66438217E-06   2.67960313E-02   1.20823364E-03   4.74000000E-01   1.02310437E-04   1.80000000E-04   4.00000000E-04   1.70000000E-06   3.90000000E-05   9.91826855E-09   1.19999878E-01   3.92674848E-16
