 TITLE = "Total Concentrations" 
VARIABLES = "X"          "Y"              "Z"            "H+"             "Al+++"          "CO2(aq)"        "NH3(aq)"        "Mg++"           "Ca++"           "Ca44++"         "Fe++"           "Fe+++"          "Cl-"            "K+"             "H2S(aq)"        "H2S34(aq)"      "SO4--"          "S34O4--"        "Na+"            "SiO2(aq)"       "O2(aq)"         "B(OH)3(aq)"     "HPO4--"         "NO3-"           "Methane(aq)"    "Formaldehyde"   "C5H7O2NSO4"    
 ZONE I=           1 , J=           1 , K=           1  F=POINT
   5.00000000E-01   5.00000000E-01   5.00000000E-01  -3.76485034E-03   1.24333030E-11   4.01802737E-03   1.48000000E-09   5.10641556E-02   1.31458068E+00   2.84830313E-02   1.74430247E-04   1.00000000E-13   3.21479133E+00   1.19997206E-02   1.18624806E-04   3.12651924E-05   2.67946887E-02   1.20817766E-03   4.74000000E-01   1.02637603E-04   1.80000000E-04   4.00000000E-04   1.70000000E-06   3.90000000E-05   8.38321655E-09   1.19997084E-01   3.92798511E-16
