 TITLE = "Total Concentrations" 
VARIABLES = "X"          "Y"              "Z"            "H+"             "Al+++"          "CO2(aq)"        "NH3(aq)"        "Mg++"           "Ca++"           "Ca44++"         "Fe++"           "Fe+++"          "Cl-"            "K+"             "H2S(aq)"        "H2S34(aq)"      "SO4--"          "S34O4--"        "Na+"            "SiO2(aq)"       "O2(aq)"         "B(OH)3(aq)"     "HPO4--"         "NO3-"           "Methane(aq)"    "Formaldehyde"   "C5H7O2NSO4"    
 ZONE I=           1 , J=           1 , K=           1  F=POINT
   5.00000000E-01   5.00000000E-01   5.00000000E-01  -4.44589240E-03   9.44895573E-12   4.47745141E-03   1.48000000E-09   5.10636105E-02   1.31503287E+00   2.84928190E-02   5.46905311E-05   1.00000000E-13   3.21479133E+00   1.19999336E-02   1.84727577E-05   1.04008574E-05   2.67959143E-02   1.20822875E-03   4.74000000E-01   1.02245976E-04   1.80000000E-04   4.00000000E-04   1.70000000E-06   3.90000000E-05   9.76528973E-09   1.19999634E-01   3.92707973E-16
