 TITLE = "Total Concentrations" 
VARIABLES = "X"          "Y"              "Z"            "H+"             "Al+++"          "CO2(aq)"        "NH3(aq)"        "Mg++"           "Ca++"           "Ca44++"         "Fe++"           "Fe+++"          "Cl-"            "K+"             "H2S(aq)"        "H2S34(aq)"      "SO4--"          "S34O4--"        "Na+"            "SiO2(aq)"       "O2(aq)"         "B(OH)3(aq)"     "HPO4--"         "NO3-"           "Methane(aq)"    "Formaldehyde"   "C5H7O2NSO4"    
 ZONE I=           1 , J=           1 , K=           1  F=POINT
   5.00000000E-01   5.00000000E-01   5.00000000E-01  -3.66985781E-03   1.34738503E-11   3.94652995E-03   1.48000000E-09   5.10643121E-02   1.31450998E+00   2.84815007E-02   1.98669533E-04   1.00000000E-13   3.21479133E+00   1.19996599E-02   1.43214106E-04   3.12798019E-05   2.67943387E-02   1.20816305E-03   4.74000000E-01   1.02750994E-04   1.80000000E-04   4.00000000E-04   1.70000000E-06   3.90000000E-05   8.03734922E-09   1.19996355E-01   3.92811968E-16
