 TITLE = "Total Concentrations" 
VARIABLES = "X"          "Y"              "Z"            "H+"             "Al+++"          "CO2(aq)"        "NH3(aq)"        "Mg++"           "Ca++"           "Ca44++"         "Fe++"           "Fe+++"          "Cl-"            "K+"             "H2S(aq)"        "H2S34(aq)"      "SO4--"          "S34O4--"        "Na+"            "SiO2(aq)"       "O2(aq)"         "B(OH)3(aq)"     "HPO4--"         "NO3-"           "Methane(aq)"    "Formaldehyde"   "C5H7O2NSO4"    
 ZONE I=           1 , J=           1 , K=           1  F=POINT
   5.00000000E-01   5.00000000E-01   5.00000000E-01  -4.37142024E-03   9.43260258E-12   4.43143815E-03   1.48000000E-09   5.10636350E-02   1.31498771E+00   2.84918417E-02   6.35091637E-05   1.00000000E-13   3.21479133E+00   1.19999234E-02   2.41781721E-05   1.35749747E-05   2.67958558E-02   1.20822632E-03   4.74000000E-01   1.02262334E-04   1.80000000E-04   4.00000000E-04   1.70000000E-06   3.90000000E-05   9.69122719E-09   1.19999513E-01   3.92719750E-16
