 TITLE = "Total Concentrations" 
VARIABLES = "X"          "Y"              "Z"            "H+"             "Al+++"          "CO2(aq)"        "NH3(aq)"        "Mg++"           "Ca++"           "Ca44++"         "Fe++"           "Fe+++"          "Cl-"            "K+"             "H2S(aq)"        "H2S34(aq)"      "SO4--"          "S34O4--"        "Na+"            "SiO2(aq)"       "O2(aq)"         "B(OH)3(aq)"     "HPO4--"         "NO3-"           "Methane(aq)"    "Formaldehyde"   "C5H7O2NSO4"    
 ZONE I=           1 , J=           1 , K=           1  F=POINT
   5.00000000E-01   5.00000000E-01   5.00000000E-01  -4.21350856E-03   9.68017434E-12   4.32801145E-03   1.48000000E-09   5.10637124E-02   1.31488612E+00   2.84896429E-02   8.81002019E-05   1.00000000E-13   3.21479133E+00   1.19998929E-02   4.01227719E-05   2.24039592E-05   2.67956805E-02   1.20821901E-03   4.74000000E-01   1.02317455E-04   1.80000000E-04   4.00000000E-04   1.70000000E-06   3.90000000E-05   9.47597526E-09   1.19999148E-01   3.92735731E-16
