 TITLE = "Total Concentrations" 
VARIABLES = "X"          "Y"              "Z"            "H+"             "Al+++"          "CO2(aq)"        "NH3(aq)"        "Mg++"           "Ca++"           "Ca44++"         "Fe++"           "Fe+++"          "Cl-"            "K+"             "H2S(aq)"        "H2S34(aq)"      "SO4--"          "S34O4--"        "Na+"            "SiO2(aq)"       "O2(aq)"         "B(OH)3(aq)"     "HPO4--"         "NO3-"           "Methane(aq)"    "Formaldehyde"   "C5H7O2NSO4"    
 ZONE I=           1 , J=           1 , K=           1  F=POINT
   5.00000000E-01   5.00000000E-01   5.00000000E-01  -3.85937913E-03   1.15758318E-11   4.08701335E-03   1.48000000E-09   5.10640252E-02   1.31464880E+00   2.84845060E-02   1.52510228E-04   1.00000000E-13   3.21479133E+00   1.19997712E-02   9.64131285E-05   3.12530246E-05   2.67949803E-02   1.20818983E-03   4.74000000E-01   1.02543239E-04   1.80000000E-04   4.00000000E-04   1.70000000E-06   3.90000000E-05   8.68597377E-09   1.19997691E-01   3.92785189E-16
