 TITLE = "Total Concentrations" 
VARIABLES = "X"          "Y"              "Z"            "H+"             "Al+++"          "CO2(aq)"        "NH3(aq)"        "Mg++"           "Ca++"           "Ca44++"         "Fe++"           "Fe+++"          "Cl-"            "K+"             "H2S(aq)"        "H2S34(aq)"      "SO4--"          "S34O4--"        "Na+"            "SiO2(aq)"       "O2(aq)"         "B(OH)3(aq)"     "HPO4--"         "NO3-"           "Methane(aq)"    "Formaldehyde"   "C5H7O2NSO4"    
 ZONE I=           1 , J=           1 , K=           1  F=POINT
   5.00000000E-01   5.00000000E-01   5.00000000E-01  -3.88071337E-03   1.14045300E-11   4.10218273E-03   1.48000000E-09   5.10639991E-02   1.31466376E+00   2.84848300E-02   1.47968279E-04   1.00000000E-13   3.21479133E+00   1.19997813E-02   9.18128472E-05   3.12505917E-05   2.67950387E-02   1.20819226E-03   4.74000000E-01   1.02524381E-04   1.80000000E-04   4.00000000E-04   1.70000000E-06   3.90000000E-05   8.74823343E-09   1.19997812E-01   3.92782195E-16
