 TITLE = "Total Concentrations" 
VARIABLES = "X"          "Y"              "Z"            "H+"             "Al+++"          "CO2(aq)"        "NH3(aq)"        "Mg++"           "Ca++"           "Ca44++"         "Fe++"           "Fe+++"          "Cl-"            "K+"             "H2S(aq)"        "H2S34(aq)"      "SO4--"          "S34O4--"        "Na+"            "SiO2(aq)"       "O2(aq)"         "B(OH)3(aq)"     "HPO4--"         "NO3-"           "Methane(aq)"    "Formaldehyde"   "C5H7O2NSO4"    
 ZONE I=           1 , J=           1 , K=           1  F=POINT
   5.00000000E-01   5.00000000E-01   5.00000000E-01  -3.78239741E-03   1.22614690E-11   4.03102755E-03   1.48000000E-09   5.10641295E-02   1.31459352E+00   2.84833093E-02   1.70163916E-04   1.00000000E-13   3.21479133E+00   1.19997307E-02   1.14300143E-04   3.12627584E-05   2.67947470E-02   1.20818009E-03   4.74000000E-01   1.02618721E-04   1.80000000E-04   4.00000000E-04   1.70000000E-06   3.90000000E-05   8.44266620E-09   1.19997205E-01   3.92796032E-16
