 TITLE = "Total Concentrations" 
VARIABLES = "X"          "Y"              "Z"            "H+"             "Al+++"          "CO2(aq)"        "NH3(aq)"        "Mg++"           "Ca++"           "Ca44++"         "Fe++"           "Fe+++"          "Cl-"            "K+"             "H2S(aq)"        "H2S34(aq)"      "SO4--"          "S34O4--"        "Na+"            "SiO2(aq)"       "O2(aq)"         "B(OH)3(aq)"     "HPO4--"         "NO3-"           "Methane(aq)"    "Formaldehyde"   "C5H7O2NSO4"    
 ZONE I=           1 , J=           1 , K=           1  F=POINT
   5.00000000E-01   5.00000000E-01   5.00000000E-01  -4.25841939E-03   9.57324818E-12   4.35831265E-03   1.48000000E-09   5.10636864E-02   1.31491589E+00   2.84902875E-02   8.02145691E-05   1.00000000E-13   3.21479133E+00   1.19999031E-02   3.50042456E-05   1.95760238E-05   2.67957389E-02   1.20822145E-03   4.74000000E-01   1.02298787E-04   1.80000000E-04   4.00000000E-04   1.70000000E-06   3.90000000E-05   9.54664973E-09   1.19999270E-01   3.92729268E-16
