 TITLE = "Total Concentrations" 
VARIABLES = "X"          "Y"              "Z"            "H+"             "Al+++"          "CO2(aq)"        "NH3(aq)"        "Mg++"           "Ca++"           "Ca44++"         "Fe++"           "Fe+++"          "Cl-"            "K+"             "H2S(aq)"        "H2S34(aq)"      "SO4--"          "S34O4--"        "Na+"            "SiO2(aq)"       "O2(aq)"         "B(OH)3(aq)"     "HPO4--"         "NO3-"           "Methane(aq)"    "Formaldehyde"   "C5H7O2NSO4"    
 ZONE I=           1 , J=           1 , K=           1  F=POINT
   5.00000000E-01   5.00000000E-01   5.00000000E-01  -1.31772247E-03   5.98490515E-10   2.29874214E-03   1.48000000E-09   5.11156862E-02   1.31266013E+00   2.84412161E-02   7.49326662E-04   1.00000000E-13   3.21479133E+00   1.19813729E-02   8.10170866E-04   3.61563433E-05   2.66780390E-02   1.20328651E-03   4.74000000E-01   1.43238744E-04   1.80000000E-04   4.00000000E-04   1.70000000E-06   3.90000000E-05   3.44795258E-10   1.19754018E-01   3.93127516E-16
