 TITLE = "Total Concentrations" 
VARIABLES = "X"          "Y"              "Z"            "H+"             "Al+++"          "CO2(aq)"        "NH3(aq)"        "Mg++"           "Ca++"           "Ca44++"         "Fe++"           "Fe+++"          "Cl-"            "K+"             "H2S(aq)"        "H2S34(aq)"      "SO4--"          "S34O4--"        "Na+"            "SiO2(aq)"       "O2(aq)"         "B(OH)3(aq)"     "HPO4--"         "NO3-"           "Methane(aq)"    "Formaldehyde"   "C5H7O2NSO4"    
 ZONE I=           1 , J=           1 , K=           1  F=POINT
   5.00000000E-01   5.00000000E-01   5.00000000E-01  -3.92663838E-03   1.10619060E-11   4.13426315E-03   1.48000000E-09   5.10639470E-02   1.31469540E+00   2.84855149E-02   1.38770972E-04   1.00000000E-13   3.21479133E+00   1.19998016E-02   8.24988697E-05   3.12457266E-05   2.67951553E-02   1.20819713E-03   4.74000000E-01   1.02486681E-04   1.80000000E-04   4.00000000E-04   1.70000000E-06   3.90000000E-05   8.87455835E-09   1.19998055E-01   3.92775767E-16
