 TITLE = "Total Concentrations" 
VARIABLES = "X"          "Y"              "Z"            "H+"             "Al+++"          "CO2(aq)"        "NH3(aq)"        "Mg++"           "Ca++"           "Ca44++"         "Fe++"           "Fe+++"          "Cl-"            "K+"             "H2S(aq)"        "H2S34(aq)"      "SO4--"          "S34O4--"        "Na+"            "SiO2(aq)"       "O2(aq)"         "B(OH)3(aq)"     "HPO4--"         "NO3-"           "Methane(aq)"    "Formaldehyde"   "C5H7O2NSO4"    
 ZONE I=           1 , J=           1 , K=           1  F=POINT
   5.00000000E-01   5.00000000E-01   5.00000000E-01  -3.97795070E-03   1.07198350E-11   4.16912834E-03   1.48000000E-09   5.10638948E-02   1.31472977E+00   2.84862587E-02   1.29482548E-04   1.00000000E-13   3.21479133E+00   1.19998219E-02   7.30937670E-05   3.12408624E-05   2.67952720E-02   1.20820199E-03   4.74000000E-01   1.02449004E-04   1.80000000E-04   4.00000000E-04   1.70000000E-06   3.90000000E-05   9.00338303E-09   1.19998298E-01   3.92768613E-16
