 TITLE = "Total Concentrations" 
VARIABLES = "X"          "Y"              "Z"            "H+"             "Al+++"          "CO2(aq)"        "NH3(aq)"        "Mg++"           "Ca++"           "Ca44++"         "Fe++"           "Fe+++"          "Cl-"            "K+"             "H2S(aq)"        "H2S34(aq)"      "SO4--"          "S34O4--"        "Na+"            "SiO2(aq)"       "O2(aq)"         "B(OH)3(aq)"     "HPO4--"         "NO3-"           "Methane(aq)"    "Formaldehyde"   "C5H7O2NSO4"    
 ZONE I=           1 , J=           1 , K=           1  F=POINT
   5.00000000E-01   5.00000000E-01   5.00000000E-01  -4.17322775E-03   9.79952812E-12   4.30030425E-03   1.48000000E-09   5.10637384E-02   1.31485888E+00   2.84890534E-02   9.57067848E-05   1.00000000E-13   3.21479133E+00   1.19998828E-02   4.50645755E-05   2.51295546E-05   2.67956222E-02   1.20821658E-03   4.74000000E-01   1.02336187E-04   1.80000000E-04   4.00000000E-04   1.70000000E-06   3.90000000E-05   9.40618233E-09   1.19999026E-01   3.92741540E-16
