 TITLE = "Total Concentrations" 
VARIABLES = "X"          "Y"              "Z"            "H+"             "Al+++"          "CO2(aq)"        "NH3(aq)"        "Mg++"           "Ca++"           "Ca44++"         "Fe++"           "Fe+++"          "Cl-"            "K+"             "H2S(aq)"        "H2S34(aq)"      "SO4--"          "S34O4--"        "Na+"            "SiO2(aq)"       "O2(aq)"         "B(OH)3(aq)"     "HPO4--"         "NO3-"           "Methane(aq)"    "Formaldehyde"   "C5H7O2NSO4"    
 ZONE I=           1 , J=           1 , K=           1  F=POINT
   5.00000000E-01   5.00000000E-01   5.00000000E-01  -3.90308787E-03   1.12332103E-11   4.11791263E-03   1.48000000E-09   5.10639730E-02   1.31467928E+00   2.84851658E-02   1.43385938E-04   1.00000000E-13   3.21479133E+00   1.19997915E-02   8.71721714E-05   3.12481591E-05   2.67950970E-02   1.20819469E-03   4.74000000E-01   1.02505529E-04   1.80000000E-04   4.00000000E-04   1.70000000E-06   3.90000000E-05   8.81109052E-09   1.19997934E-01   3.92779060E-16
