 TITLE = "Total Concentrations" 
VARIABLES = "X"          "Y"              "Z"            "H+"             "Al+++"          "CO2(aq)"        "NH3(aq)"        "Mg++"           "Ca++"           "Ca44++"         "Fe++"           "Fe+++"          "Cl-"            "K+"             "H2S(aq)"        "H2S34(aq)"      "SO4--"          "S34O4--"        "Na+"            "SiO2(aq)"       "O2(aq)"         "B(OH)3(aq)"     "HPO4--"         "NO3-"           "Methane(aq)"    "Formaldehyde"   "C5H7O2NSO4"    
 ZONE I=           1 , J=           1 , K=           1  F=POINT
   5.00000000E-01   5.00000000E-01   5.00000000E-01  -3.68464785E-03   1.32989189E-11   3.95776161E-03   1.48000000E-09   5.10642860E-02   1.31452110E+00   2.84817413E-02   1.94793198E-04   1.00000000E-13   3.21479133E+00   1.19996700E-02   1.39279431E-04   3.12773664E-05   2.67943970E-02   1.20816549E-03   4.74000000E-01   1.02732084E-04   1.80000000E-04   4.00000000E-04   1.70000000E-06   3.90000000E-05   8.09374695E-09   1.19996477E-01   3.92809870E-16
