 TITLE = "Total Concentrations" 
VARIABLES = "X"          "Y"              "Z"            "H+"             "Al+++"          "CO2(aq)"        "NH3(aq)"        "Mg++"           "Ca++"           "Ca44++"         "Fe++"           "Fe+++"          "Cl-"            "K+"             "H2S(aq)"        "H2S34(aq)"      "SO4--"          "S34O4--"        "Na+"            "SiO2(aq)"       "O2(aq)"         "B(OH)3(aq)"     "HPO4--"         "NO3-"           "Methane(aq)"    "Formaldehyde"   "C5H7O2NSO4"    
 ZONE I=           1 , J=           1 , K=           1  F=POINT
   5.00000000E-01   5.00000000E-01   5.00000000E-01  -4.10288038E-03   1.00603918E-11   4.25078836E-03   1.48000000E-09   5.10637905E-02   1.31481017E+00   2.84879992E-02   1.10128504E-04   1.00000000E-13   3.21479133E+00   1.19998625E-02   5.44457793E-05   3.02916738E-05   2.67955054E-02   1.20821172E-03   4.74000000E-01   1.02373740E-04   1.80000000E-04   4.00000000E-04   1.70000000E-06   3.90000000E-05   9.26902768E-09   1.19998784E-01   3.92751640E-16
