 TITLE = "Total Concentrations" 
VARIABLES = "X"          "Y"              "Z"            "H+"             "Al+++"          "CO2(aq)"        "NH3(aq)"        "Mg++"           "Ca++"           "Ca44++"         "Fe++"           "Fe+++"          "Cl-"            "K+"             "H2S(aq)"        "H2S34(aq)"      "SO4--"          "S34O4--"        "Na+"            "SiO2(aq)"       "O2(aq)"         "B(OH)3(aq)"     "HPO4--"         "NO3-"           "Methane(aq)"    "Formaldehyde"   "C5H7O2NSO4"    
 ZONE I=           1 , J=           1 , K=           1  F=POINT
   5.00000000E-01   5.00000000E-01   5.00000000E-01  -3.71538226E-03   1.29510753E-11   3.98099832E-03   1.48000000E-09   5.10642338E-02   1.31454408E+00   2.84822389E-02   1.86844315E-04   1.00000000E-13   3.21479133E+00   1.19996903E-02   1.31213874E-04   3.12724961E-05   2.67945137E-02   1.20817036E-03   4.74000000E-01   1.02694278E-04   1.80000000E-04   4.00000000E-04   1.70000000E-06   3.90000000E-05   8.20801424E-09   1.19996719E-01   3.92805513E-16
