 TITLE = "Total Component Concentration in Minerals" 
VARIABLES = "X"          "Y"              "Z"            "H+"             "Al+++"          "CO2(aq)"        "NH3(aq)"        "Mg++"           "Ca++"           "Ca44++"         "Fe++"           "Fe+++"          "Cl-"            "K+"             "H2S(aq)"        "H2S34(aq)"      "SO4--"          "S34O4--"        "Na+"            "SiO2(aq)"       "O2(aq)"         "B(OH)3(aq)"     "HPO4--"         "NO3-"           "Methane(aq)"    "Formaldehyde"   "C5H7O2NSO4"    
 ZONE I=           1 , J=           1 , K=           1  F=POINT
   5.00000000E-01   5.00000000E-01   5.00000000E-01  -2.02529119E+04   1.09667584E+03   8.29503407E+03   0.00000000E+00   1.40077939E+02   8.12282889E+03   1.72205185E+02   4.03824684E-01   0.00000000E+00   0.00000000E+00   9.18527268E+01   3.96796237E-01   7.02844714E-03   0.00000000E+00   0.00000000E+00   0.00000000E+00   2.37202148E+03   0.00000000E+00   0.00000000E+00   0.00000000E+00   0.00000000E+00   0.00000000E+00   0.00000000E+00   1.66048000E-03
