 TITLE = "Total Component Concentration in Minerals" 
VARIABLES = "X"          "Y"              "Z"            "H+"             "Al+++"          "CO2(aq)"        "NH3(aq)"        "Mg++"           "Ca++"           "Ca44++"         "Fe++"           "Fe+++"          "Cl-"            "K+"             "H2S(aq)"        "H2S34(aq)"      "SO4--"          "S34O4--"        "Na+"            "SiO2(aq)"       "O2(aq)"         "B(OH)3(aq)"     "HPO4--"         "NO3-"           "Methane(aq)"    "Formaldehyde"   "C5H7O2NSO4"    
 ZONE I=           1 , J=           1 , K=           1  F=POINT
   5.00000000E-01   5.00000000E-01   5.00000000E-01  -2.02530818E+04   1.09667584E+03   8.29514884E+03   0.00000000E+00   1.40077814E+02   8.12294123E+03   1.72207616E+02   3.74089548E-01   0.00000000E+00   0.00000000E+00   9.18527758E+01   3.74089548E-01   0.00000000E+00   0.00000000E+00   0.00000000E+00   0.00000000E+00   2.37202139E+03   0.00000000E+00   0.00000000E+00   0.00000000E+00   0.00000000E+00   0.00000000E+00   0.00000000E+00   1.66048000E-03
