 TITLE = "Total Component Concentration in Minerals" 
VARIABLES = "X"          "Y"              "Z"            "H+"             "Al+++"          "CO2(aq)"        "NH3(aq)"        "Mg++"           "Ca++"           "Ca44++"         "Fe++"           "Fe+++"          "Cl-"            "K+"             "H2S(aq)"        "H2S34(aq)"      "SO4--"          "S34O4--"        "Na+"            "SiO2(aq)"       "O2(aq)"         "B(OH)3(aq)"     "HPO4--"         "NO3-"           "Methane(aq)"    "Formaldehyde"   "C5H7O2NSO4"    
 ZONE I=           1 , J=           1 , K=           1  F=POINT
   5.00000000E-01   5.00000000E-01   5.00000000E-01  -2.02526573E+04   1.09667584E+03   8.29488008E+03   0.00000000E+00   1.40077976E+02   8.12267816E+03   1.72201923E+02   4.30488854E-01   0.00000000E+00   0.00000000E+00   9.18526961E+01   4.13864409E-01   1.66244448E-02   0.00000000E+00   0.00000000E+00   0.00000000E+00   2.37202147E+03   0.00000000E+00   0.00000000E+00   0.00000000E+00   0.00000000E+00   0.00000000E+00   0.00000000E+00   1.66048000E-03
