 TITLE = "Mineral Volumes" 
VARIABLES = "X"          "Y"              "Z"            "FeS(am)"        "FeS34(am)"      "Siderite"       "SiO2(am)"       "Quartz"         "Calcite"        "Calcite44"      "Sepiolite"      "K-Feldspar"     "Kaolinite"      "C5H7O2NSO4(s)" 
 ZONE I=           1 , J=           1 , K=           1  F=POINT
   5.00000000E-01   5.00000000E-01   5.00000000E-01   0.00000000E+00   0.00000000E+00   0.00000000E+00   5.95749427E-05   2.00000000E-02   3.00384221E-01   6.36891595E-03   9.77919557E-03   1.01319064E-02   4.99397121E-02   5.18900000E-06
