 TITLE = "Mineral Volumes" 
VARIABLES = "X"          "Y"              "Z"            "FeS(am)"        "FeS34(am)"      "Siderite"       "SiO2(am)"       "Quartz"         "Calcite"        "Calcite44"      "Sepiolite"      "K-Feldspar"     "Kaolinite"      "C5H7O2NSO4(s)" 
 ZONE I=           1 , J=           1 , K=           1  F=POINT
   5.00000000E-01   5.00000000E-01   5.00000000E-01   9.22177039E-06   1.35740145E-08   0.00000000E+00   0.00000000E+00   2.00000000E-02   3.00010919E-01   6.36027731E-03   1.00015604E-02   1.00000090E-02   4.99999970E-02   5.18900000E-06
