 TITLE = "Mineral Volumes" 
VARIABLES = "X"          "Y"              "Z"            "FeS(am)"        "FeS34(am)"      "Siderite"       "SiO2(am)"       "Quartz"         "Calcite"        "Calcite44"      "Sepiolite"      "K-Feldspar"     "Kaolinite"      "C5H7O2NSO4(s)" 
 ZONE I=           1 , J=           1 , K=           1  F=POINT
   5.00000000E-01   5.00000000E-01   5.00000000E-01   8.12690484E-06   0.00000000E+00   0.00000000E+00   0.00000000E+00   2.00000000E-02   3.00016850E-01   6.36040571E-03   1.00015413E-02   1.00000204E-02   4.99999918E-02   5.18900000E-06
