 TITLE = "Mineral Volumes" 
VARIABLES = "X"          "Y"              "Z"            "FeS(am)"        "FeS34(am)"      "Siderite"       "SiO2(am)"       "Quartz"         "Calcite"        "Calcite44"      "Sepiolite"      "K-Feldspar"     "Kaolinite"      "C5H7O2NSO4(s)" 
 ZONE I=           1 , J=           1 , K=           1  F=POINT
   5.00000000E-01   5.00000000E-01   5.00000000E-01   9.28752413E-06   5.01570308E-08   0.00000000E+00   0.00000000E+00   2.00000000E-02   3.00010395E-01   6.36026596E-03   1.00015615E-02   1.00000084E-02   4.99999973E-02   5.18900000E-06
