 TITLE = "Mineral Volumes" 
VARIABLES = "X"          "Y"              "Z"            "FeS(am)"        "FeS34(am)"      "Siderite"       "SiO2(am)"       "Quartz"         "Calcite"        "Calcite44"      "Sepiolite"      "K-Feldspar"     "Kaolinite"      "C5H7O2NSO4(s)" 
 ZONE I=           1 , J=           1 , K=           1  F=POINT
   5.00000000E-01   5.00000000E-01   5.00000000E-01   7.95604718E-06   0.00000000E+00   0.00000000E+00   0.00000000E+00   2.00000000E-02   3.00017610E-01   6.36042216E-03   1.00015379E-02   1.00000223E-02   4.99999909E-02   5.18900000E-06
